% Model:              brazing.mph
% Version:            COMSOL 5.3.0.223
% Date:               Oct 22 2018, 00:08
% Dimension:          1
% Nodes:              145
% Expressions:        1
% Description:        Line graph
% x                       Height
0                         637.1854278491356
1.8037553861809572E-4     637.4408564560138
3.5951128344368776E-4     637.6434030326428
5.377561773732229E-4      637.7930675790229
7.154644111300318E-4      637.8898500951541
8.929933875627798E-4      637.9337505810363
0.0010707015910786408     637.9247690366695
0.0012489464247083767     637.8629054620536
0.0014280820795340731     637.7481598571889
0.0016084574989771061     637.5805322220751
0.0017793134314883058     637.5139217075089
0.0019491114898538484     637.4228993900796
0.002118149876008701      637.3074652697877
0.0022867308232763497     637.1676193466329
0.002455159027530182      637.0033616206152
0.0026237400128558564     636.8146920917349
0.0027927784749207734     636.6016107599916
0.0029625766466419693     636.3641176253852
0.0031334327293582195     636.1022126879163
0.0033042867504275058     635.924949469431
0.0034740828875811486     635.7428473165616
0.0036431193341009516     635.5559062293082
0.0038116983146850476     635.364126207671
0.003980124516686077      635.1675072516497
0.004148703455848711      634.9660493612446
0.004317739819749776      634.7597525364554
0.004487535833529769      634.5486167772822
0.004658389691119368      634.3326420837252
0.0048387629974717405     634.2085428274281
0.005017896580971026      634.090034433146
0.005196139373513023      633.9771169008795
0.0053738455543625        633.8697902306282
0.005551372514551955      633.7680544223921
0.005729078726427549      633.6719094761713
0.005907321580834967      633.5813553919656
0.006086455256670912      633.4963921697754
0.006266828685292636      633.4170198096004
0.0064472042239161545     633.560957301569
0.0066263399687470585     633.7134799186473
0.00680458486268183       633.874587660836
0.0069822930964438265     634.0442805281348
0.007159822072881748      634.2225585205437
0.007337530276402798      634.4094216380624
0.007515775110037768      634.6048698806914
0.007694910764868775      634.8089032484304
0.007875286184317232      635.0215217412793
0.008046142116827224      635.2920008068022
0.008215940175191578      635.5544575973507
0.008384978561345261      635.8088921129252
0.008553559508611747      636.0553043535255
0.008721987712864422      636.2936943191515
0.008890568698188937      636.5240620098035
0.00905960716025268       636.7464074254814
0.009229405331972688      636.9607305661848
0.009400261414687729      637.1670314319142
0.009571115435747398      637.4841234181168
0.009740911572891598      637.7718221323051
0.009909948019402086      638.0301275744796
0.010078526999976944      638.2590397446397
0.010246953201968763      638.4585586427858
0.010415532141122159      638.6286842689177
0.010584568505013912      638.7694166230352
0.010754364518784467      638.8807557051387
0.010925218376364454      638.9627015152281
0.011105591682722255      639.1225173860933
0.01128472526622686       639.2367022531647
0.011462968058774099      639.3052561164429
0.011640674239628768      639.3281789759276
0.011818201199823401      639.3054708316185
0.01199590741170419       639.2371316835162
0.012174150266116847      639.1231615316202
0.012353283941958112      638.9635603759307
0.012533657370585264      638.7583282164478
0.01271403176453574       638.7156344678218
0.012893166387683227      638.6196882383643
0.013071410176518557      638.4704895280759
0.013249117315197753      638.268038336956
0.013426645199902413      638.0123346650049
0.013604352308338922      637.7033785122226
0.01378259603687098       637.3411698786089
0.013961730570013379      636.9257087641639
0.014142104844781908      636.4569951688877
0.014312959944399205      636.0570290350482
0.014482757184992078      635.6333108353654
0.014651794764271453      635.1858405698395
0.014820374911240972      634.7146182384705
0.014988802317395246      634.2196438412584
0.01515738250242126       633.7009173782031
0.015326420157607648      633.1584388493047
0.015496217511551624      632.5922082545629
0.015667072761367945      632.0022255939783
0.01583792791479403       631.4865454538333
0.016007725163749622      630.9789103013859
0.01617676270725794       630.4793201366366
0.01634534277588875       629.9877749595853
0.016513770062946447      629.5042747702317
0.01668235009015449       629.0288195685763
0.016851387551041475      628.5614093546186
0.017021184676619543      628.1020441283588
0.017192039666560827      627.6507238897971
0.017372413817338207      627.275891007208
0.017551548228302124      626.9275686706492
0.017729791836073705      626.6057568801212
0.017907498824762332      626.3104556356238
0.018085026590318725      626.041664937157
0.018262733610032132      625.7993847847206
0.018440977279666457      625.5836151783149
0.018620111782963036      625.3943561179397
0.018800486056004474      625.2316076035951
0.018980860449944497      625.3138221842127
0.019159995073081745      625.4278821594853
0.019338238861906984      625.5737875294133
0.01951594600057618       625.7515382939965
0.019693473885270874      625.9611344532349
0.019871180993697383      626.2025760071284
0.020049424722219357      626.4758629556771
0.02022855925535152       626.780995298881
0.0204089335301096        627.1179730367402
0.02057978862980686       627.5154942735622
0.020749585870478253      627.916533874291
0.020918623449835097      628.3210918389266
0.021087203596881453      628.7291681674689
0.021255631003112355      629.140762859918
0.021424211188215206      629.5558759162739
0.021593248843479067      629.9745073365365
0.021763046197501558      630.3966571207058
0.02193390144739785       630.822325268782
0.022104756600747556      631.3859032399906
0.02227455384962815       631.9243419360332
0.02244359139306247       632.4376413569098
0.022612171461619885      632.9258015026206
0.022780598748604386      633.3888223731653
0.022949178775739036      633.826703968544
0.02311821623655202       634.2394462887568
0.023288013362055097      634.6270493338035
0.023458868351919994      634.9895131036843
0.02363924250270423       635.4178877651489
0.023818376913674867      635.8001663930651
0.023996620521453065      636.1363489874335
0.02417432751014825       636.4264355482538
0.02435185527571118       636.6704260755263
0.024529562295431146      636.8683205692507
0.02470780596507209       637.020119029427
0.024886940468375387      637.1258214560553
0.025067314741423676      637.1854278491356
