% Model:              brazing.mph
% Version:            COMSOL 5.3.0.223
% Date:               Oct 21 2018, 23:53
% Dimension:          1
% Nodes:              145
% Expressions:        1
% Description:        Line graph
% x                       Height
0                         633.6532789119595
1.8037553861809572E-4     633.9095283025962
3.5951128344368776E-4     634.1128002523836
5.377561773732229E-4      634.2630947613221
7.154644111300318E-4      634.3604118294116
8.929933875627798E-4      634.4047514566521
0.0010707015910786408     634.3961136430435
0.0012489464247083767     634.3344983885856
0.0014280820795340731     634.2199056932789
0.0016084574989771061     634.052335557123
0.0017793134314883058     633.986072512105
0.0019491114898538484     633.8953606193144
0.002118149876008701      633.7801998787515
0.0022867308232763497     633.6405902904162
0.002455159027530182      633.4765318543084
0.0026237400128558564     633.2880245704282
0.0027927784749207734     633.0750684387756
0.0029625766466419693     632.8376634593503
0.0031334327293582195     632.5758096321529
0.0033042867504275058     632.3989818746147
0.0034740828875811486     632.2172755404382
0.0036431193341009516     632.0306906296235
0.0038116983146850476     631.8392271421706
0.003980124516686077      631.6428850780792
0.004148703455848711      631.4416644373498
0.004317739819749776      631.2355652199818
0.004487535833529769      631.0245874259757
0.004658389691119368      630.8087310553314
0.0048387629974717405     630.6850586885195
0.005017896580971026      630.5668984299974
0.005196139373513023      630.4542502797659
0.0053738455543625        630.3471142378244
0.005551372514551955      630.2454903041731
0.005729078726427549      630.1493784788121
0.005907321580834967      630.058778761741
0.006086455256670912      629.9736911529602
0.006266828685292636      629.8941156524696
0.0064472042239161545     630.0386007377274
0.0066263399687470585     630.191604863001
0.00680458486268183       630.3531280282907
0.0069822930964438265     630.5231702335964
0.007159822072881748      630.701731478918
0.007337530276402798      630.8888117642556
0.007515775110037768      631.0844110896093
0.007694910764868775      631.2885294549787
0.007875286184317232      631.5011668603643
0.008046142116827224      631.7718250746386
0.008215940175191578      632.0344054710632
0.008384978561345261      632.2889080496385
0.008553559508611747      632.5353328103643
0.008721987712864422      632.7736797532406
0.008890568698188937      633.0039488782672
0.00905960716025268       633.2261401854445
0.009229405331972688      633.4402536747723
0.009400261414687729      633.6462893462505
0.009571115435747398      633.9635694267015
0.009740911572891598      634.2514001998109
0.009909948019402086      634.5097816655788
0.010078526999976944      634.7387138240049
0.010246953201968763      634.9381966750894
0.010415532141122159      635.1082302188324
0.010584568505013912      635.2488144552336
0.010754364518784467      635.3599493842934
0.010925218376364454      635.4416350060114
0.011105591682722255      635.601392840635
0.01128472526622686       635.715459141124
0.011462968058774099      635.783833907479
0.011640674239628768      635.8065171396997
0.011818201199823401      635.7835088377861
0.01199590741170419       635.7148090017383
0.012174150266116847      635.6004176315561
0.012353283941958112      635.4403347272396
0.012533657370585264      635.234560288789
0.01271403176453574       635.1921046669889
0.012893166387683227      635.0963101952202
0.013071410176518557      634.9471768734829
0.013249117315197753      634.744704701777
0.013426645199902413      634.4888936801024
0.013604352308338922      634.1797438084593
0.01378259603687098       633.8172550868474
0.013961730570013379      633.4014275152668
0.014142104844781908      632.9322610937178
0.014312959944399205      632.5320721319321
0.014482757184992078      632.1080952531855
0.014651794764271453      631.660330457478
0.014820374911240972      631.1887777448101
0.014988802317395246      630.693437115181
0.01515738250242126       630.1743085685913
0.015326420157607648      629.6313921050407
0.015496217511551624      629.0646877245294
0.015667072761367945      628.4741954270572
0.01583792791479403       627.9583900960729
0.016007725163749622      627.4505982518647
0.01617676270725794       626.9508198944326
0.01634534277588875       626.4590550237767
0.016513770062946447      625.9753036398969
0.01668235009015449       625.4995657427933
0.016851387551041475      625.0318413324655
0.017021184676619543      624.5721304089142
0.017192039666560827      624.1204329721389
0.017372413817338207      623.7455114134934
0.017551548228302124      623.3970368917459
0.017729791836073705      623.0750094068965
0.017907498824762332      622.7794289589451
0.018085026590318725      622.510295547892
0.018262733610032132      622.2676091737367
0.018440977279666457      622.0513698364796
0.018620111782963036      621.8615775361204
0.018800486056004474      621.6982322726594
0.018980860449944497      621.7806590623723
0.019159995073081745      621.8948891759973
0.019338238861906984      622.0409226135348
0.01951594600057618       622.2187593749845
0.019693473885270874      622.4283994603468
0.019871180993697383      622.6698428696213
0.020049424722219357      622.9430896028083
0.02022855925535152       623.2481396599076
0.0204089335301096        623.5849930409192
0.02057978862980686       623.9826038442721
0.020749585870478253      624.3836825681368
0.020918623449835097      624.7882292125138
0.021087203596881453      625.1962437774026
0.021255631003112355      625.6077262628036
0.021424211188215206      626.0226766687166
0.021593248843479067      626.4410949951415
0.021763046197501558      626.8629812420785
0.02193390144739785       627.2883354095275
0.022104756600747556      627.8522271591678
0.02227455384962815       628.3909395582998
0.02244359139306247       628.9044726069241
0.022612171461619885      629.3928263050403
0.022780598748604386      629.8560006526484
0.022949178775739036      630.2939956497486
0.02311821623655202       630.7068112963407
0.023288013362055097      631.0944475924247
0.023458868351919994      631.4569045380008
0.02363924250270423       631.8855267467073
0.023818376913674867      632.2680038025137
0.023996620521453065      632.6043357054202
0.02417432751014825       632.8945224554268
0.02435185527571118       633.1385640525334
0.024529562295431146      633.33646049674
0.02470780596507209       633.4882117880464
0.024886940468375387      633.593817926453
0.025067314741423676      633.6532789119595
