% Model:              brazing.mph
% Version:            COMSOL 5.3.0.223
% Date:               Oct 21 2018, 23:59
% Dimension:          1
% Nodes:              145
% Expressions:        1
% Description:        Line graph
% x                       Height
0                         571.7399997801501
1.8037553861809572E-4     572.0042717989446
3.5951128344368776E-4     572.2138597261459
5.377561773732229E-4      572.3687635617547
7.154644111300318E-4      572.4689833057704
8.929933875627798E-4      572.5145189581934
0.0010707015910786408     572.5053705190236
0.0012489464247083767     572.4415379882607
0.0014280820795340731     572.3230213659051
0.0016084574989771061     572.1498206519567
0.0017793134314883058     572.0841539469988
0.0019491114898538484     571.9935759686391
0.002118149876008701      571.8780867168783
0.0022867308232763497     571.7376861917161
0.002455159027530182      571.5723743931524
0.0026237400128558564     571.3821513211873
0.0027927784749207734     571.1670169758206
0.0029625766466419693     570.9269713570527
0.0031334327293582195     570.6620144648833
0.0033042867504275058     570.4899247985363
0.0034740828875811486     570.3125095112416
0.0036431193341009516     570.1297686029993
0.0038116983146850476     569.9417020738094
0.003980124516686077      569.7483099236721
0.004148703455848711      569.5495921525869
0.004317739819749776      569.3455487605543
0.004487535833529769      569.1361797475738
0.004658389691119368      568.9214851136459
0.0048387629974717405     568.8053258292589
0.005017896580971026      568.6934856725233
0.005196139373513023      568.5859646434392
0.0053738455543625        568.4827627420066
0.005551372514551955      568.3838799682254
0.005729078726427549      568.2893163220957
0.005907321580834967      568.1990718036175
0.006086455256670912      568.1131464127907
0.006266828685292636      568.0315401496152
0.0064472042239161545     568.189478716177
0.0066263399687470585     568.3549579333234
0.00680458486268183       568.5279778010546
0.0069822930964438265     568.7085383193707
0.007159822072881748      568.8966394882717
0.007337530276402798      569.0922813077575
0.007515775110037768      569.2954637778281
0.007694910764868775      569.5061868984833
0.007875286184317232      569.7244506697235
0.008046142116827224      570.0038117365681
0.008215940175191578      570.2742167166098
0.008384978561345261      570.5356656098492
0.008553559508611747      570.7881584162858
0.008721987712864422      571.0316951359198
0.008890568698188937      571.2662757687511
0.00905960716025268       571.4919003147799
0.009229405331972688      571.7085687740059
0.009400261414687729      571.9162811464295
0.009571115435747398      572.2444688738589
0.009740911572891598      572.5422024304128
0.009909948019402086      572.8094818160919
0.010078526999976944      573.0463070308956
0.010246953201968763      573.2526780748241
0.010415532141122159      573.4285949478774
0.010584568505013912      573.5740576500555
0.010754364518784467      573.6890661813583
0.010925218376364454      573.773620541786
0.011105591682722255      573.9407003377852
0.01128472526622686       574.0608828461804
0.011462968058774099      574.134168066972
0.011640674239628768      574.16055600016
0.011818201199823401      574.1400466457442
0.01199590741170419       574.0726400037246
0.012174150266116847      573.9583360741013
0.012353283941958112      573.7971348568741
0.012533657370585264      573.5890363520434
0.01271403176453574       573.5593392657005
0.012893166387683227      573.4744431950523
0.013071410176518557      573.3343481400993
0.013249117315197753      573.1390541008411
0.013426645199902413      572.8885610772779
0.013604352308338922      572.5828690694096
0.01378259603687098       572.2219780772361
0.013961730570013379      571.8058881007577
0.014142104844781908      571.3345991399742
0.014312959944399205      570.9362791334386
0.014482757184992078      570.5132064883657
0.014651794764271453      570.0653812047559
0.014820374911240972      569.5928032826091
0.014988802317395246      569.0954727219251
0.01515738250242126       568.5733895227042
0.015326420157607648      568.0265536849461
0.015496217511551624      567.454965208651
0.015667072761367945      566.8586240938189
0.01583792791479403       566.3441947812315
0.016007725163749622      565.8368300700351
0.01617676270725794       565.3365299602305
0.01634534277588875       564.8432944518169
0.016513770062946447      564.3571235447946
0.01668235009015449       563.8780172391636
0.016851387551041475      563.4059755349238
0.017021184676619543      562.9409984320754
0.017192039666560827      562.4830859306182
0.017372413817338207      562.1073168056269
0.017551548228302124      561.7563959361297
0.017729791836073705      561.430323322127
0.017907498824762332      561.1290989636187
0.018085026590318725      560.852722860605
0.018262733610032132      560.6011950130855
0.018440977279666457      560.3745154210604
0.018620111782963036      560.1726840845298
0.018800486056004474      559.9957010034935
0.018980860449944497      560.0795738559077
0.019159995073081745      560.1941056790067
0.019338238861906984      560.3392964727909
0.01951594600057618       560.5151462372601
0.019693473885270874      560.7216549724143
0.019871180993697383      560.9588226782536
0.020049424722219357      561.2266493547777
0.02022855925535152       561.5251350019868
0.0204089335301096        561.8542796198811
0.02057978862980686       562.2483878589941
0.020749585870478253      562.644775282812
0.020918623449835097      563.0434418913353
0.021087203596881453      563.4443876845637
0.021255631003112355      563.8476126624975
0.021424211188215206      564.2531168251364
0.021593248843479067      564.6609001724805
0.021763046197501558      565.0709627045297
0.02193390144739785       565.4833044212843
0.022104756600747556      566.0461017626876
0.02227455384962815       566.5828391436221
0.02244359139306247       567.0935165640882
0.022612171461619885      567.5781340240856
0.022780598748604386      568.0366915236143
0.022949178775739036      568.4691890626746
0.02311821623655202       568.8756266412661
0.023288013362055097      569.2560042593888
0.023458868351919994      569.6103219170432
0.02363924250270423       570.035310154641
0.023818376913674867      570.4132090512588
0.023996620521453065      570.744018606897
0.02417432751014825       571.0277388215554
0.02435185527571118       571.264369695234
0.024529562295431146      571.4539112279328
0.02470780596507209       571.5963634196517
0.024886940468375387      571.6917262703907
0.025067314741423676      571.7399997801501
