% Model:              brazing.mph
% Version:            COMSOL 5.3.0.223
% Date:               Oct 21 2018, 23:50
% Dimension:          1
% Nodes:              225
% Expressions:        1
% Description:        Line graph
% x                       Height
0                         645.0757505918826
2.3022181212578358E-4     644.940047072241
4.5999325066962656E-4     644.778011698325
6.894940081029028E-4      644.5896444701352
9.189044129547812E-4      644.3749453876715
0.001148405006736289      644.1339144509338
0.0013781761183620641     643.8665516599219
0.001608397441069865      643.5728570146362
0.001839314118928521      642.8819410330806
0.0020697760201574002     642.1954849040272
0.002299964597801726      641.5134886274761
0.0025300619515304015     640.8359522034274
0.0027602503975112853     640.1628756318813
0.0029907120357255193     639.494258912837
0.003221628319839081      638.8301020462953
0.0034518885683530987     637.950869799473
0.0036816980188178403     637.0636187538819
0.003911236592567028      636.1683489095218
0.004140684848157368      635.2650602663929
0.004370223557282477      634.3537528244952
0.004600033278179856      633.4344265838284
0.004830293931548535      632.507081544393
0.005060048526376791      631.3928522742331
0.005289355629682316      630.2915024007544
0.005518393850920054      629.2030319239567
0.005747342428834         628.1274408438401
0.00597638081262499       627.0647291604051
0.006205688240655705      626.0148968736507
0.006435443321622868      624.9779439835778
0.006665339619110656      623.8591588921017
0.006894787442849326      622.7611073173772
0.007123965728649401      621.6837892594043
0.007353054043912613      620.6272047181828
0.007582232167524012      619.5913536937132
0.007811679667266285      618.576236185995
0.008041575479707366      617.5818521950284
0.008271887219609135      616.5792563520355
0.008501747728772392      615.6124582129396
0.008731337046705121      614.6814577777407
0.008960835851156599      613.7862550464388
0.009190425033567954      612.9268500190342
0.009420285272008154      612.1032426955264
0.009650596606620833      611.3154330759158
0.009881512912836019      610.5542683787208
0.010111974573021956      609.84240128854
0.010342163040896366      609.179831805373
0.010572260416492441      608.5665599292201
0.010802449016030204      608.0025856600816
0.011032910939230619      607.4879089979568
0.011263827639190652      607.0225299428462
0.011494048967061755      606.5795291842561
0.011723820083820682      606.2119441384447
0.011953320682717213      605.9197748054115
0.012182731092678062      605.7030211851568
0.012412231855226382      605.5616832776809
0.012642003298903411      605.4957610829831
0.012872225116192546      605.505254601064
0.013102446994778118      605.3662597907396
0.013332218499393473      605.3236126855601
0.01356171932266464       605.3773132855251
0.013791129793276359      605.5273615906352
0.01402063045289555       605.7737576008902
0.014250401630592404      606.1165013162898
0.014480623019759359      606.5555927368343
0.014711539835704642      606.8239173929254
0.014942001874208778      607.174603071439
0.015172190588640395      607.6076497723751
0.01540228807899374       608.1230574957339
0.015632476661762654      608.7208262415154
0.015862938437253588      609.4009560097192
0.01609385485945594       610.1634468003457
0.016324115336228646      610.8398012969499
0.016553925013622208      611.5556685607021
0.016783463813500554      612.3110485916022
0.017012912294953733      613.1059413896505
0.01724245123020976       613.9403469548472
0.01747226117803945       614.8142652871916
0.017702522059672054      615.7276963866841
0.017932276794613372      616.6417952898506
0.018161584037218948      617.5820562636375
0.018390622397267263      618.5484793080445
0.018619571113827754      619.5410644230722
0.018848609636427344      620.5598116087202
0.019077917203754128      621.6047208649884
0.019307672424828403      622.675792191877
0.019537568573699274      623.6508062184964
0.01976701624968263       624.6415506741178
0.019996194388245302      625.6480255587412
0.020225282556443316      626.6702308723665
0.020454460532815345      627.7081666149938
0.02068390788479834       628.7618327866229
0.020913803548616574      629.8312293872542
0.02114411498977932       630.6872459263407
0.021373975201947604      631.5565788429308
0.02160356422393484       632.4392281370243
0.02183306273279162       633.3351938086213
0.02206265161925901       634.2444758577223
0.02229251156070728       635.1670742843262
0.02252282259658549       636.102989088434
0.022753738766914562      636.7088886151066
0.022984200292012823      637.3168517141457
0.023214388625279938      637.9268783855514
0.023444485866429166      638.5389686293234
0.023674674331359946      639.1531224454621
0.023905136119473275      639.7693398339671
0.024136052683548088      640.3876207948388
0.024366274021741702      640.6014126931492
0.024596045148762867      640.8174977380423
0.024825545757885373      641.0358759295184
0.02505495617806012       641.2565472675773
0.02528445695083446       641.4795117522193
0.025514228404773787      641.7047693834439
0.025744450232385536      641.9323201612516
0.025974672267095825      641.7950215402152
0.026204443926923768      641.6373854428396
0.02643394490485871       641.4594118691248
0.02666335552995085       641.261100819071
0.026892856344233315      641.0424522926781
0.02712262767714175       640.8034662899457
0.02735284922243193       640.5441428108744
0.027583766528201624      639.8834755682509
0.027814229053652367      639.2153018100935
0.028044418253299775      638.5396215364019
0.02827451622829193       637.8564347471764
0.028504705296278778      637.1657414424172
0.028735167558720572      636.4675416221238
0.028966084470753738      635.7618352862966
0.029196345605491433      634.8920609733681
0.02942615593701711       633.9919498702054
0.02965569538872289       633.0615019768082
0.029885144521236064      632.1007172931768
0.030114684108324883      631.1095958193114
0.030344494710297387      630.0881375552111
0.030574756249911007      629.0363425008767
0.030804511377321087      627.8923315087475
0.031033819010118435      626.7401244308834
0.031262857758987544      625.5797212672842
0.03149180686390927       624.4111220179501
0.031720845775323685      623.2343266828815
0.031950153732830305      622.0493352620775
0.032179909346355486      620.8561477555389
0.0324098051544111        619.6760199148479
0.032639252491552244      618.5040495393736
0.03286843029245836       617.3402366291158
0.0330975181233935        616.1845811840749
0.03332669576210278       615.0370832042507
0.03355614277523119       613.8977426896432
0.033786038098215655      612.7665596402525
0.034016348759356954      611.6865460494851
0.03424620819605658       610.6413270175735
0.034475796445315066      609.6309025445174
0.03470529418235937       608.6552726303172
0.03493488229610333       607.714437274973
0.035164741462093585      606.808396478484
0.03539505171796626       605.9371502408511
0.035625967353597694      605.1295730067828
0.03585642834714083       604.37815530624
0.036086616150743635      603.6828971392229
0.03631671286286018       603.0437985057313
0.03654690079812825       602.4608594057655
0.036777362054689705      601.934079839325
0.03700827808407173       601.4634598064102
0.03723849938140827       601.0456725711458
0.03746827046781093       600.7098512910695
0.03769777103645843       600.4559959661811
0.03792718141620601       600.2841065964809
0.0381566821485052        600.1941831819689
0.03838645356182577       600.1862257226447
0.03861667534858004       600.2602342185087
0.038846895274787324      600.236434714205
0.039076664838430766      600.314147225202
0.03930616372759302       600.4933717514995
0.03953557226638858       600.7741082930977
0.039765070991905134      601.1563568499967
0.039994840228642616      601.6401174221961
0.040225059665450036      602.2253900096963
0.04045597761776665       602.6954477539907
0.04068644078597457       603.2492139323463
0.04091663062609736       603.886688544763
0.041146729240799984      604.6078715912412
0.04137691894925231       605.4127630717809
0.04160738185443156       606.3013629863816
0.04183829941298208       607.2736713350437
0.04206856149768976       608.192714071365
0.04229837277362926       609.1488423858423
0.04252791316640542       610.1420562784758
0.04275736323887129       611.1723557492653
0.04298690376702529       612.2397407982113
0.04321671531340127       613.344211425313
0.04344697780296935       614.4857676305711
0.043676731016186174      615.6839135637687
0.04390603674591497       616.891405833228
0.04413507359840861       618.1082444389493
0.04436402080919017       619.3344293809325
0.044593057824233256      620.5699606591778
0.04482236387867965       621.8148382736848
0.045052117578024006      623.0690622244538
0.045282012653644836      624.3287409861714
0.045511459262636354      625.5733185533885
0.04574063633797325       626.802794926105
0.04596972344420469       628.0171701043213
0.046198900357357554      629.2164440880372
0.046428346642361965      630.4006168772524
0.04665824123294997       631.5696884719674
0.04688855484177433       632.652078847907
0.04711841720894409       633.7130838501995
0.04734800837831597       634.7527034788448
0.04757750903201372       635.770937733843
0.047807100065861544      636.7677866151945
0.04803696216230292       637.7432501228985
0.04826727536583021       638.6973282569558
0.048498193048686675      639.4412556677746
0.048728656077441146      640.1612333508873
0.04895884590902903       640.8572613062936
0.04918894464672031       641.5293395339936
0.04941913460997818       642.1774680339878
0.04964959790176041       642.8016468062754
0.04988051597838159       643.4018758508569
0.05011073543954296       643.6700172705431
0.0503405047004922        643.9284865380017
0.05057000345013497       644.1772836532327
0.05079941201302823       644.4164086162364
0.05102891092631677       644.6458614270128
0.05125868051417213       644.8656420855614
0.051488900464733596      645.0757505918826
