% Model:              brazing.mph
% Version:            COMSOL 5.3.0.223
% Date:               Oct 22 2018, 00:14
% Dimension:          1
% Nodes:              225
% Expressions:        1
% Description:        Line graph
% x                       Height
0                         609.9201040938268
2.3022181212578358E-4     609.7838950611264
4.5999325066962656E-4     609.6272345427742
6.894940081029028E-4      609.4501225387704
9.189044129547812E-4      609.2525590491149
0.001148405006736289      609.0345440738081
0.0013781761183620641     608.7960776128492
0.001608397441069865      608.537159666239
0.001839314118928521      607.8817096071874
0.0020697760201574002     607.2346845989282
0.002299964597801726      606.5960846414612
0.0025300619515304015     605.9659097347862
0.0027602503975112853     605.344159878904
0.0029907120357255193     604.7308350738135
0.003221628319839081      604.1259353195156
0.0034518885683530987     603.3098388047504
0.0036816980188178403     602.4860950053583
0.003911236592567028      601.654703921339
0.004140684848157368      600.8156655526927
0.004370223557282477      599.9689798994199
0.004600033278179856      599.1146469615196
0.004830293931548535      598.2526667389925
0.005060048526376791      597.2162509470326
0.005289355629682316      596.1918654341548
0.005518393850920054      595.1795102003591
0.005747342428834         594.1791852456457
0.00597638081262499       593.1908905700146
0.006205688240655705      592.2146261734654
0.006435443321622868      591.2503920559985
0.006665339619110656      590.2117790629528
0.006894787442849326      589.1918046113877
0.007123965728649401      588.1904687013034
0.007353054043912613      587.2077713326997
0.007582232167524012      586.2437125055769
0.007811679667266285      585.2982922199346
0.008041575479707366      584.3715104757732
0.008271887219609135      583.4407623416593
0.008501747728772392      582.5428727026213
0.008731337046705121      581.677841558659
0.008960835851156599      580.8456689097725
0.009190425033567954      580.0463547559624
0.009420285272008154      579.2798990972278
0.009650596606620833      578.5463019335692
0.009881512912836019      577.8403257143206
0.010111974573021956      577.1799963145132
0.010342163040896366      576.5653137341469
0.010572260416492441      575.9962779732219
0.010802449016030204      575.4728890317384
0.011032910939230619      574.9951469096959
0.011263827639190652      574.5630516070946
0.011494048967061755      574.1519996627181
0.011723820083820682      573.8125614338273
0.011953320682717213      573.5447369204217
0.012182731092678062      573.3485261225015
0.012412231855226382      573.2239290400671
0.012642003298903411      573.1709456731177
0.012872225116192546      573.1895760216539
0.013102446994778118      573.0545862524751
0.013332218499393473      573.0125898183677
0.01356171932266464       573.0635867193316
0.013791129793276359      573.2075769553671
0.01402063045289555       573.4445605264742
0.014250401630592404      573.7745374326526
0.014480623019759359      574.1975076739024
0.014711539835704642      574.4443832062091
0.014942001874208778      574.7704948755874
0.015172190588640395      575.175842682037
0.01540228807899374       575.6604266255583
0.015632476661762654      576.2242467061513
0.015862938437253588      576.8673029238156
0.01609385485945594       577.5895952785515
0.016324115336228646      578.2234234107626
0.016553925013622208      578.8938197629567
0.016783463813500554      579.6007843351339
0.017012912294953733      580.3443171272941
0.01724245123020976       581.1244181394377
0.01747226117803945       581.941087371564
0.017702522059672054      582.7943248236736
0.017932276794613372      583.6514133821632
0.018161584037218948      584.5322596903331
0.018390622397267263      585.436863748183
0.018619571113827754      586.3652255557132
0.018848609636427344      587.3173451129238
0.019077917203754128      588.2932224198141
0.019307672424828403      589.2928574763849
0.019537568573699274      590.2048740182177
0.01976701624968263       591.1308277311714
0.019996194388245302      592.070718615246
0.020225282556443316      593.0245466704419
0.020454460532815345      593.9923118967588
0.02068390788479834       594.9740142941964
0.020913803548616574      595.9696538627553
0.02114411498977932       596.764046946579
0.021373975201947604      597.5710853958777
0.02160356422393484       598.3907692106515
0.02183306273279162       599.2230983909001
0.02206265161925901       600.0680729366242
0.02229251156070728       600.9256928478227
0.02252282259658549       601.7959581244966
0.022753738766914562      602.3512033733531
0.022984200292012823      602.9091662837154
0.023214388625279938      603.4698468555835
0.023444485866429166      604.0332450889574
0.023674674331359946      604.5993609838376
0.023905136119473275      605.1681945402231
0.024136052683548088      605.7397457581147
0.024366274021741702      605.9227746048882
0.024596045148762867      606.1112525077243
0.024825545757885373      606.3051794666231
0.02505495617806012       606.5045554815847
0.02528445695083446       606.7093805526092
0.025514228404773787      606.9196546796962
0.025744450232385536      607.1353778628461
0.025974672267095825      606.986050881663
0.026204443926923768      606.8223184832837
0.02643394490485871       606.644180667708
0.02666335552995085       606.4516374349362
0.026892856344233315      606.2446887849683
0.02712262767714175       606.0233347178039
0.02735284922243193       605.7875752334434
0.027583766528201624      605.1510853155693
0.027814229053652367      604.5114085375552
0.028044418253299775      603.8685448994012
0.02827451622829193       603.2224944011073
0.028504705296278778      602.5732570426736
0.028735167558720572      601.9208328240998
0.028966084470753738      601.2652217453863
0.029196345605491433      600.4431251218152
0.02942615593701711       599.5922426679488
0.02965569538872289       598.7125743837865
0.029885144521236064      597.8041202693288
0.030114684108324883      596.8668803245757
0.030344494710297387      595.9008545495266
0.030574756249911007      594.9060429441821
0.030804511377321087      593.8281790143056
0.031033819010118435      592.7416090287852
0.031262857758987544      591.6463329876207
0.03149180686390927       590.5423508908123
0.031720845775323685      589.42966273836
0.031950153732830305      588.3082685302635
0.032179909346355486      587.1781682665231
0.0324098051544111        586.0666512503244
0.032639252491552244      584.9616832148162
0.03286843029245836       583.8632641599983
0.0330975181233935        582.7713940858708
0.03332669576210278       581.6860729924341
0.03355614277523119       580.6073008796875
0.033786038098215655      579.5350777476315
0.034016348759356954      578.5158915414461
0.03424620819605658       577.5288533500209
0.034475796445315066      576.5739631733557
0.03470529418235937       575.6512210114505
0.03493488229610333       574.7606268643058
0.035164741462093585      573.9021807319208
0.03539505171796626       573.075882614296
0.035625967353597694      572.3127326368367
0.03585642834714083       571.6022519120803
0.036086616150743635      570.9444404400268
0.03631671286286018       570.3392982206764
0.03654690079812825       569.7868252540292
0.036777362054689705      569.2870215400847
0.03700827808407173       568.8398870788432
0.03723849938140827       568.4432115815351
0.03746827046781093       568.1248430798394
0.03769777103645843       567.8847815737556
0.03792718141620601       567.723027063284
0.0381566821485052        567.6395795484249
0.03838645356182577       567.6344390291774
0.03861667534858004       567.7076055055423
0.038846895274787324      567.676922864808
0.039076664838430766      567.744473107219
0.03930616372759302       567.9102562327752
0.03953557226638858       568.174272241477
0.039765070991905134      568.5365211333242
0.039994840228642616      568.9970029083164
0.040225059665450036      569.5557175664543
0.04045597761776665       569.9926346018682
0.04068644078597457       570.5104697702177
0.04091663062609736       571.1092230715026
0.041146729240799984      571.788894505723
0.04137691894925231       572.5494840728791
0.04160738185443156       573.3909917729706
0.04183829941298208       574.3134176059976
0.04206856149768976       575.1795035667554
0.04229837277362926       576.0801466319015
0.04252791316640542       577.0153468014356
0.04275736323887129       577.9851040753581
0.04298690376702529       578.9894184536691
0.04321671531340127       580.0282899363681
0.04344697780296935       581.1017185234555
0.043676731016186174      582.2337382094513
0.04390603674591497       583.3736984994874
0.04413507359840861       584.5215993935635
0.04436402080919017       585.6774408916797
0.044593057824233256      586.8412229938364
0.04482236387867965       588.0129457000328
0.045052117578024006      589.1926090102696
0.045282012653644836      590.3832820483591
0.045511459262636354      591.558532143903
0.04574063633797325       592.7183592969016
0.04596972344420469       593.8627635073549
0.046198900357357554      594.9917447752631
0.046428346642361965      596.1053031006255
0.04665824123294997       597.2034384834428
0.04688855484177433       598.2237388540702
0.04711841720894409       599.2233067789736
0.04734800837831597       600.2021422581522
0.04757750903201372       601.1602452916065
0.047807100065861544      602.0976158793369
0.04803696216230292       603.0142540213425
0.04826727536583021       603.910159717624
0.048498193048686675      604.6073642549975
0.048728656077441146      605.2823217916488
0.04895884590902903       605.9350323275773
0.04918894464672031       606.5654958627836
0.04941913460997818       607.1737123972678
0.04964959790176041       607.7596819310291
0.04988051597838159       608.3234044640683
0.05011073543954296       608.5695376852048
0.0503405047004922        608.8096598149986
0.05057000345013497       609.0437708534496
0.05079941201302823       609.2718708005578
0.05102891092631677       609.4939596563237
0.05125868051417213       609.7100374207465
0.051488900464733596      609.9201040938268
