% Model:              brazing.mph
% Version:            COMSOL 5.3.0.223
% Date:               Oct 22 2018, 00:00
% Dimension:          1
% Nodes:              145
% Expressions:        1
% Description:        Line graph
% x                       Height
0                         579.7920821077113
1.8037553861809572E-4     580.0553491285277
3.5951128344368776E-4     580.2641391286566
5.377561773732229E-4      580.4184521080979
7.154644111300318E-4      580.5182880668517
8.929933875627798E-4      580.563647004918
0.0010707015910786408     580.5545289222969
0.0012489464247083767     580.4909338189882
0.0014280820795340731     580.3728616949917
0.0016084574989771061     580.200312550308
0.0017793134314883058     580.1345235608522
0.0019491114898538484     580.0438767630149
0.002118149876008701      579.9283721567964
0.0022867308232763497     579.7880097421966
0.002455159027530182      579.6227895192153
0.0026237400128558564     579.4327114878529
0.0027927784749207734     579.217775648109
0.0029625766466419693     578.9779819999837
0.0031334327293582195     578.7133305434772
0.0033042867504275058     578.5405706619849
0.0034740828875811486     578.3625379890392
0.0036431193341009516     578.1792325246404
0.0038116983146850476     577.9906542687884
0.003980124516686077      577.796803221483
0.004148703455848711      577.5976793827243
0.004317739819749776      577.3932827525124
0.004487535833529769      577.1836133308472
0.004658389691119368      576.9686711177288
0.0048387629974717405     576.8514701921038
0.005017896580971026      576.7387351254339
0.005196139373513023      576.6304659177196
0.0053738455543625        576.5266625689605
0.005551372514551955      576.4273250791566
0.005729078726427549      576.3324534483083
0.005907321580834967      576.242047676415
0.006086455256670912      576.156107763477
0.006266828685292636      576.0746337094946
0.0064472042239161545     576.2307868109723
0.0066263399687470585     576.3946030381838
0.00680458486268183       576.5660823911296
0.0069822930964438265     576.7452248698096
0.007159822072881748      576.9320304742234
0.007337530276402798      577.1264992043715
0.007515775110037768      577.3286310602534
0.007694910764868775      577.5384260418695
0.007875286184317232      577.7558841492196
0.008046142116827224      578.0340653325717
0.008215940175191578      578.3034019393143
0.008384978561345261      578.5638939694478
0.008553559508611747      578.815541422972
0.008721987712864422      579.0583442998868
0.008890568698188937      579.2923026001924
0.00905960716025268       579.5174163238887
0.009229405331972688      579.7336854709755
0.009400261414687729      579.9411100414532
0.009571115435747398      580.2678716074876
0.009740911572891598      580.5643073022352
0.009909948019402086      580.8304171256966
0.010078526999976944      581.0662010778714
0.010246953201968763      581.2716591587596
0.010415532141122159      581.4467913683615
0.010584568505013912      581.5915977066765
0.010754364518784467      581.7060781737051
0.010925218376364454      581.7902327694472
0.011105591682722255      581.9563638720578
0.01128472526622686       582.0757520728446
0.011462968058774099      582.148397371808
0.011640674239628768      582.1742997689478
0.011818201199823401      582.153459264264
0.01199590741170419       582.0858758577567
0.012174150266116847      581.9715495494258
0.012353283941958112      581.8104803392713
0.012533657370585264      581.6026682272934
0.01271403176453574       581.571401498429
0.012893166387683227      581.4851707139195
0.013071410176518557      581.3439758737654
0.013249117315197753      581.1478169779665
0.013426645199902413      580.8966940265227
0.013604352308338922      580.5906070194341
0.01378259603687098       580.2295559567007
0.013961730570013379      579.8135408383222
0.014142104844781908      579.3425616642991
0.014312959944399205      578.9440590839234
0.014482757184992078      578.5209272684958
0.014651794764271453      578.0731662180167
0.014820374911240972      577.6007759324858
0.014988802317395246      577.1037564119031
0.01515738250242126       576.5821076562687
0.015326420157607648      576.0358296655825
0.015496217511551624      575.4649224398444
0.015667072761367945      574.8693859790548
0.01583792791479403       574.3548706181573
0.016007725163749622      573.8475398995014
0.01617676270725794       573.3473938230876
0.01634534277588875       572.8544323889156
0.016513770062946447      572.3686555969853
0.01668235009015449       571.8900634472968
0.016851387551041475      571.4186559398502
0.017021184676619543      570.9544330746453
0.017192039666560827      570.4973948516823
0.017372413817338207      570.1218429946682
0.017551548228302124      569.7713383117064
0.017729791836073705      569.4458808027972
0.017907498824762332      569.1454704679405
0.018085026590318725      568.8701073071361
0.018262733610032132      568.6197913203844
0.018440977279666457      568.3945225076849
0.018620111782963036      568.1943008690379
0.018800486056004474      568.0191264044435
0.018980860449944497      568.1029393604017
0.019159995073081745      568.2175516283476
0.019338238861906984      568.3629632082814
0.01951594600057618       568.5391741002029
0.019693473885270874      568.7461843041123
0.019871180993697383      568.9839938200095
0.020049424722219357      569.2526026478943
0.02022855925535152       569.5520107877669
0.0204089335301096        569.8822182396274
0.02057978862980686       570.2768609238607
0.020749585870478253      570.6739275119446
0.020918623449835097      571.0734180038796
0.021087203596881453      571.4753323996655
0.021255631003112355      571.8796706993022
0.021424211188215206      572.2864329027899
0.021593248843479067      572.6956190101283
0.021763046197501558      573.1072290213176
0.02193390144739785       573.5212629363577
0.022104756600747556      574.0842690952262
0.02227455384962815       574.6213206344355
0.02244359139306247       575.132417553986
0.022612171461619885      575.6175598538773
0.022780598748604386      576.0767475341097
0.022949178775739036      576.509980594683
0.02311821623655202       576.9172590355975
0.023288013362055097      577.2985828568527
0.023458868351919994      577.653952058449
0.02363924250270423       578.0794312043516
0.023818376913674867      578.4579330651469
0.023996620521453065      578.7894576408349
0.02417432751014825       579.0740049314159
0.02435185527571118       579.3115749368894
0.024529562295431146      579.5021676572558
0.02470780596507209       579.6457830925149
0.024886940468375387      579.7424212426666
0.025067314741423676      579.7920821077113
