% Model:              brazing.mph
% Version:            COMSOL 5.3.0.223
% Date:               Oct 22 2018, 00:17
% Dimension:          1
% Nodes:              225
% Expressions:        1
% Description:        Line graph
% x                       Height
0                         626.4683933870126
2.3022181212578358E-4     626.3271731809881
4.5999325066962656E-4     626.1609427838259
6.894940081029028E-4      625.9697021955257
9.189044129547812E-4      625.7534514160876
0.001148405006736289      625.512190445512
0.0013781761183620641     625.2459192837982
0.001608397441069865      624.9546379309467
0.001839314118928521      624.2590730858687
0.0020697760201574002     623.5689806946248
0.002299964597801726      622.8843607572147
0.0025300619515304015     622.2052132736386
0.0027602503975112853     621.5315382438968
0.0029907120357255193     620.8633356679885
0.003221628319839081      620.2006055459144
0.0034518885683530987     619.3204613464053
0.0036816980188178403     618.4318823539667
0.003911236592567028      617.5348685685984
0.004140684848157368      616.6294199903004
0.004370223557282477      615.7155366190731
0.004600033278179856      614.7932184549157
0.004830293931548535      613.8624654978289
0.005060048526376791      612.7475153080393
0.005289355629682316      611.6451054860901
0.005518393850920054      610.555236031981
0.005747342428834         609.4779069457126
0.00597638081262499       608.4131182272847
0.006205688240655705      607.3608698766968
0.006435443321622868      606.3211618939496
0.006665339619110656      605.2020115750581
0.006894787442849326      604.1031580674008
0.007123965728649401      603.0246013709776
0.007353054043912613      601.9663414857883
0.007582232167524012      600.9283784118335
0.007811679667266285      599.9107121491124
0.008041575479707366      598.9133426976257
0.008271887219609135      597.9099224866445
0.008501747728772392      596.9420003785895
0.008731337046705121      596.0095763734605
0.008960835851156599      595.112650471258
0.009190425033567954      594.251222671982
0.009420285272008154      593.4252929756318
0.009650596606620833      592.6348613822081
0.009881512912836019      591.8726446693404
0.010111974573021956      591.1595245824863
0.010342163040896366      590.4955011216454
0.010572260416492441      589.880574286818
0.010802449016030204      589.3147440780045
0.011032910939230619      588.798010495204
0.011263827639190652      588.3303735384172
0.011494048967061755      587.8853727185713
0.011723820083820682      587.5163517773761
0.011953320682717213      587.2233107148321
0.012182731092678062      587.006249530939
0.012412231855226382      586.8651682256974
0.012642003298903411      586.8000667991065
0.012872225116192546      586.8109452511668
0.013102446994778118      586.6662470438506
0.013332218499393473      586.6193844604292
0.01356171932266464       586.6703575009022
0.013791129793276359      586.81916616527
0.01402063045289555       587.0658104535324
0.014250401630592404      587.4102903656892
0.014480623019759359      587.8526059017408
0.014711539835704642      588.1162661534474
0.014942001874208778      588.4635054412245
0.015172190588640395      588.894323765072
0.01540228807899374       589.4087211249902
0.015632476661762654      590.0066975209792
0.015862938437253588      590.6882529530385
0.01609385485945594       591.4533874211685
0.016324115336228646      592.1287393695504
0.016553925013622208      592.8435287246126
0.016783463813500554      593.5977554863551
0.017012912294953733      594.3914196547779
0.01724245123020976       595.2245212298811
0.01747226117803945       596.0970602116643
0.017702522059672054      597.009036600128
0.017932276794613372      597.9239262081195
0.018161584037218948      598.8646639651859
0.018390622397267263      599.8312498713269
0.018619571113827754      600.8236839265427
0.018848609636427344      601.8419661308335
0.019077917203754128      602.8860964841987
0.019307672424828403      603.9560749866389
0.019537568573699274      604.9325313280806
0.01976701624968263       605.9243088912715
0.019996194388245302      606.9314076762114
0.020225282556443316      607.9538276829003
0.020454460532815345      608.9915689113386
0.02068390788479834       610.0446313615257
0.020913803548616574      611.113015033462
0.02114411498977932       611.9703276326538
0.021373975201947604      612.840681693857
0.02160356422393484       613.7240772170717
0.02183306273279162       614.6205142022978
0.02206265161925901       615.5299926495358
0.02229251156070728       616.4525125587847
0.02252282259658549       617.3880739300456
0.022753738766914562      617.9952700839318
0.022984200292012823      618.6043407762991
0.023214388625279938      619.2152860071471
0.023444485866429166      619.8281057764761
0.023674674331359946      620.4428000842863
0.023905136119473275      621.0593689305771
0.024136052683548088      621.677812315349
0.024366274021741702      621.8920781110966
0.024596045148762867      622.1092121136587
0.024825545757885373      622.3292143230352
0.02505495617806012       622.5520847392261
0.02528445695083446       622.7778233622316
0.025514228404773787      623.0064301920513
0.025744450232385536      623.2379052286855
0.025974672267095825      623.0973431308503
0.026204443926923768      622.9379353487386
0.02643394490485871       622.7596818823504
0.02666335552995085       622.5625827316858
0.026892856344233315      622.3466378967449
0.02712262767714175       622.1118473775273
0.02735284922243193       621.8582111740334
0.027583766528201624      621.1951873448332
0.027814229053652367      620.525882292871
0.028044418253299775      619.8502960181461
0.02827451622829193       619.168428520659
0.028504705296278778      618.4802798004097
0.028735167558720572      617.7858498573978
0.028966084470753738      617.0851386916238
0.029196345605491433      616.216659715862
0.02942615593701711       615.3177146802784
0.02965569538872289       614.3883035848728
0.029885144521236064      613.4284264296454
0.030114684108324883      612.4380832145964
0.030344494710297387      611.4172739397252
0.030574756249911007      610.3659986050324
0.030804511377321087      609.2246994022069
0.031033819010118435      608.074849689084
0.031262857758987544      606.9164494656637
0.03149180686390927       605.7494987319461
0.031720845775323685      604.5739974879314
0.031950153732830305      603.3899457336188
0.032179909346355486      602.1973434690092
0.0324098051544111        601.0203546436298
0.032639252491552244      599.8510623187024
0.03286843029245836       598.6894664942264
0.0330975181233935        597.5355671702022
0.03332669576210278       596.3893643466299
0.03355614277523119       595.2508580235091
0.033786038098215655      594.1200482008401
0.034016348759356954      593.0426531392933
0.03424620819605658       591.9997154589659
0.034475796445315066      590.9912351598574
0.03470529418235937       590.0172122419685
0.03493488229610333       589.077646705299
0.035164741462093585      588.1725385498485
0.03539505171796626       587.3018877756175
0.035625967353597694      586.4964815529333
0.03585642834714083       585.7469783838816
0.036086616150743635      585.0533782684622
0.03631671286286018       584.4156812066753
0.03654690079812825       583.8338871985211
0.036777362054689705      583.307996243999
0.03700827808407173       582.8380083431095
0.03723849938140827       582.4211078407222
0.03746827046781093       582.08666137442
0.03769777103645843       581.8346689442026
0.03792718141620601       581.66513055007
0.0381566821485052        581.5780461920225
0.03838645356182577       581.5734158700596
0.03861667534858004       581.6512395841818
0.038846895274787324      581.6242488991279
0.039076664838430766      581.7001537626733
0.03930616372759302       581.8789541748181
0.03953557226638858       582.1606501355619
0.039765070991905134      582.5452416449054
0.039994840228642616      583.032728702848
0.040225059665450036      583.6231113093899
0.04045597761776665       584.090407334462
0.04068644078597457       584.6425426314332
0.04091663062609736       585.2795172003031
0.041146729240799984      586.0013310410717
0.04137691894925231       586.8079841537395
0.04160738185443156       587.6994765383059
0.04183829941298208       588.6758081947713
0.04206856149768976       589.595235051549
0.04229837277362926       590.5515688141851
0.04252791316640542       591.5448094826792
0.04275736323887129       592.5749570570315
0.04298690376702529       593.6420115372424
0.04321671531340127       594.745972923311
0.04344697780296935       595.8868412152382
0.043676731016186174      597.0863339228965
0.04390603674591497       598.2947814183436
0.04413507359840861       599.5121837015795
0.04436402080919017       600.7385407726041
0.044593057824233256      601.9738526314177
0.04482236387867965       603.2181192780197
0.045052117578024006      604.4713407124107
0.045282012653644836      605.7323871700813
0.045511459262636354      606.9778516269647
0.04574063633797325       608.2077340830607
0.04596972344420469       609.4220345383694
0.046198900357357554      610.620752992891
0.046428346642361965      611.8038894466248
0.04665824123294997       612.9714438995715
0.04688855484177433       614.0544254585728
0.04711841720894409       615.1156672457029
0.04734800837831597       616.1551692609611
0.04757750903201372       617.1729315043477
0.047807100065861544      618.1689539758631
0.04803696216230292       619.1432366755065
0.04826727536583021       620.0957796032785
0.048498193048686675      620.8396983910403
0.048728656077441146      621.5593926417077
0.04895884590902903       622.2548623552808
0.04918894464672031       622.9261075317596
0.04941913460997818       623.5731281711443
0.04964959790176041       624.1959242734343
0.04988051597838159       624.7944958386304
0.05011073543954296       625.0612367221319
0.0503405047004922        625.3187733848654
0.05057000345013497       625.5671058268308
0.05079941201302823       625.8062340480282
0.05102891092631677       626.0361580484578
0.05125868051417213       626.2568778281192
0.051488900464733596      626.4683933870126
