% Model:              brazing.mph
% Version:            COMSOL 5.3.0.223
% Date:               Oct 22 2018, 00:13
% Dimension:          1
% Nodes:              145
% Expressions:        1
% Description:        Line graph
% x                       Height
0                         635.3291859017178
1.8037553861809572E-4     635.5852596308179
3.5951128344368776E-4     635.7883827275879
5.377561773732229E-4      635.938555192028
7.154644111300318E-4      636.0357770241386
8.929933875627798E-4      636.080048223919
0.0010707015910786408     636.0713687913697
0.0012489464247083767     636.0097387264902
0.0014280820795340731     635.895158029281
0.0016084574989771061     635.7276266997419
0.0017793134314883058     635.6613164486572
0.0019491114898538484     635.570566781594
0.002118149876008701      635.4553776985526
0.0022867308232763497     635.3157491995328
0.002455159027530182      635.1516812845343
0.0026237400128558564     634.9631739535575
0.0027927784749207734     634.7502272066023
0.0029625766466419693     634.5128410436688
0.0031334327293582195     634.2510154647567
0.0033042867504275058     634.0741043991276
0.0034740828875811486     633.8923242298678
0.0036431193341009516     633.7056749569775
0.0038116983146850476     633.514156580457
0.003980124516686077      633.3177691003059
0.004148703455848711      633.1165125165244
0.004317739819749776      632.9103868291124
0.004487535833529769      632.69939203807
0.004658389691119368      632.4835281433972
0.0048387629974717405     632.3597595270631
0.005017896580971026      632.2415232599956
0.005196139373513023      632.1288193421951
0.0053738455543625        632.0216477736615
0.005551372514551955      631.9200085543946
0.005729078726427549      631.8239016843944
0.005907321580834967      631.7333271636611
0.006086455256670912      631.6482849921945
0.006266828685292636      631.5687751699948
0.0064472042239161545     631.7131057497637
0.0066263399687470585     631.8659718284254
0.00680458486268183       632.0273734059803
0.0069822930964438265     632.1973104824278
0.007159822072881748      632.3757830577686
0.007337530276402798      632.5627911320022
0.007515775110037768      632.7583347051286
0.007694910764868775      632.962413777148
0.007875286184317232      633.1750283480603
0.008046142116827224      633.4456172482271
0.008215940175191578      633.7081422845608
0.008384978561345261      633.9626034570621
0.008553559508611747      634.2090007657305
0.008721987712864422      634.4473342105662
0.008890568698188937      634.6776037915691
0.00905960716025268       634.8998095087392
0.009229405331972688      635.1139513620766
0.009400261414687729      635.3200293515813
0.009571115435747398      635.637218372322
0.009740911572891598      635.9249727818882
0.009909948019402086      636.1832925802803
0.010078526999976944      636.4121777674983
0.010246953201968763      636.6116283435421
0.010415532141122159      636.7816443084115
0.010584568505013912      636.9222256621067
0.010754364518784467      637.0333724046277
0.010925218376364454      637.1150845359746
0.011105591682722255      637.274807204141
0.01128472526622686       637.3888549119962
0.011462968058774099      637.4572276595404
0.011640674239628768      637.4799254467734
0.011818201199823401      637.4569482736955
0.01199590741170419       637.3882961403065
0.012174150266116847      637.2739690466061
0.012353283941958112      637.1139669925947
0.012533657370585264      636.9082899782723
0.01271403176453574       636.8657072859481
0.012893166387683227      636.7698108457076
0.013071410176518557      636.6206006575511
0.013249117315197753      636.4180767214783
0.013426645199902413      636.1622390374894
0.013604352308338922      635.8530876055843
0.01378259603687098       635.4906224257629
0.013961730570013379      635.0748434980253
0.014142104844781908      634.6057508223716
0.014312959944399205      634.2055728680104
0.014482757184992078      633.7816184651748
0.014651794764271453      633.3338876138653
0.014820374911240972      632.8623803140815
0.014988802317395246      632.3670965658239
0.01515738250242126       631.8480363690919
0.015326420157607648      631.305199723886
0.015496217511551624      630.7385866302059
0.015667072761367945      630.1481970880516
0.01583792791479403       629.6323852200748
0.016007725163749622      629.1245977574298
0.01617676270725794       628.6248347001172
0.01634534277588875       628.1330960481364
0.016513770062946447      627.6493818014878
0.01668235009015449       627.1736919601713
0.016851387551041475      626.7060265241867
0.017021184676619543      626.246385493534
0.017192039666560827      625.7947688682136
0.017372413817338207      625.4198462947836
0.017551548228302124      625.071391276147
0.017729791836073705      624.7494038123039
0.017907498824762332      624.4538839032541
0.018085026590318725      624.1848315489977
0.018262733610032132      623.942246749535
0.018440977279666457      623.7261295048655
0.018620111782963036      623.5364798149894
0.018800486056004474      623.3732976799068
0.018980860449944497      623.4556611949463
0.019159995073081745      623.5698426092848
0.019338238861906984      623.715841922923
0.01951594600057618       623.8936591358605
0.019693473885270874      624.1032942480973
0.019871180993697383      624.3447472596334
0.020049424722219357      624.6180181704689
0.02022855925535152       624.9231069806038
0.0204089335301096        625.260013690038
0.02057978862980686       625.6576179135379
0.020749585870478253      626.0587063499848
0.020918623449835097      626.4632789993792
0.021087203596881453      626.8713358617207
0.021255631003112355      627.2828769370095
0.021424211188215206      627.6979022252456
0.021593248843479067      628.1164117264289
0.021763046197501558      628.5384054405592
0.02193390144739785       628.9638833676371
0.022104756600747556      629.5277232806925
0.02227455384962815       630.0663966125801
0.02244359139306247       630.5799033633002
0.022612171461619885      631.0682435328526
0.022780598748604386      631.5314171212373
0.022949178775739036      631.9694241284544
0.02311821623655202       632.3822645545039
0.023288013362055097      632.7699383993855
0.023458868351919994      633.1324456630996
0.02363924250270423       633.56104963039
0.023818376913674867      633.9435231680415
0.023996620521453065      634.2798662760543
0.02417432751014825       634.5700789544285
0.02435185527571118       634.8141612031637
0.024529562295431146      635.0121130222605
0.02470780596507209       635.1639344117183
0.024886940468375387      635.2696253715374
0.025067314741423676      635.3291859017178
