% Model:              brazing.mph
% Version:            COMSOL 5.3.0.223
% Date:               Oct 22 2018, 00:13
% Dimension:          1
% Nodes:              145
% Expressions:        1
% Description:        Line graph
% x                       Height
0                         630.0800295665006
1.8037553861809572E-4     630.3266651169981
3.5951128344368776E-4     630.5218832749077
5.377561773732229E-4      630.66568404023
7.154644111300318E-4      630.7580674129645
8.929933875627798E-4      630.7990333931114
0.0010707015910786408     630.7885819806705
0.0012489464247083767     630.726713175642
0.0014280820795340731     630.6134269780258
0.0016084574989771061     630.448723387822
0.0017793134314883058     630.3820451023432
0.0019491114898538484     630.2915441075088
0.002118149876008701      630.1772204033191
0.0022867308232763497     630.0390739897739
0.002455159027530182      629.8771048668733
0.0026237400128558564     629.6913130346173
0.0027927784749207734     629.4816984930058
0.0029625766466419693     629.2482612420387
0.0031334327293582195     628.9910012817164
0.0033042867504275058     628.8139004525214
0.0034740828875811486     628.6323233049367
0.0036431193341009516     628.4462698389631
0.0038116983146850476     628.2557400546001
0.003980124516686077      628.0607339518479
0.004148703455848711      627.8612515307062
0.004317739819749776      627.6572927911755
0.004487535833529769      627.4488577332552
0.004658389691119368      627.2359463569459
0.0048387629974717405     627.1113007901021
0.005017896580971026      626.9928745771998
0.005196139373513023      626.8806677182396
0.0053738455543625        626.7746802132212
0.005551372514551955      626.6749120621448
0.005729078726427549      626.5813632650102
0.005907321580834967      626.4940338218174
0.006086455256670912      626.4129237325665
0.006266828685292636      626.3380329972573
0.0064472042239161545     626.4769133944925
0.0066263399687470585     626.6248309168583
0.00680458486268183       626.7817855643548
0.0069822930964438265     626.9477773369819
0.007159822072881748      627.1228062347398
0.007337530276402798      627.3068722576282
0.007515775110037768      627.4999754056472
0.007694910764868775      627.702115678797
0.007875286184317232      627.9132930770774
0.008046142116827224      628.1802533923146
0.008215940175191578      628.4396865815143
0.008384978561345261      628.6915926446767
0.008553559508611747      628.9359715818017
0.008721987712864422      629.1728233928893
0.008890568698188937      629.4021480779394
0.00905960716025268       629.623945636952
0.009229405331972688      629.8382160699273
0.009400261414687729      630.0449593768652
0.009571115435747398      630.356953453023
0.009740911572891598      630.640206429829
0.009909948019402086      630.8947183072838
0.010078526999976944      631.120489085387
0.010246953201968763      631.3175187641385
0.010415532141122159      631.4858073435386
0.010584568505013912      631.625354823587
0.010754364518784467      631.7361612042838
0.010925218376364454      631.8182264856292
0.011105591682722255      631.9762933543622
0.01128472526622686       632.0896832350255
0.011462968058774099      632.1583961276198
0.011640674239628768      632.1824320321446
0.011818201199823401      632.1617909485999
0.01199590741170419       632.0964728769859
0.012174150266116847      631.9864778173026
0.012353283941958112      631.8318057695499
0.012533657370585264      631.6324567337277
0.01271403176453574       631.5867647031163
0.012893166387683227      631.4890148777957
0.013071410176518557      631.3392072577664
0.013249117315197753      631.137341843028
0.013426645199902413      630.8834186335807
0.013604352308338922      630.5774376294246
0.01378259603687098       630.2193988305593
0.013961730570013379      629.809302236985
0.014142104844781908      629.347147848702
0.014312959944399205      628.9518174013328
0.014482757184992078      628.533219730027
0.014651794764271453      628.0913548347847
0.014820374911240972      627.6262227156062
0.014988802317395246      627.137823372491
0.01515738250242126       626.6261568054395
0.015326420157607648      626.0912230144514
0.015496217511551624      625.5330219995268
0.015667072761367945      624.9515537606659
0.01583792791479403       624.4397857245374
0.016007725163749622      623.9362703327802
0.01617676270725794       623.4410075853946
0.01634534277588875       622.9539974823801
0.016513770062946447      622.4752400237371
0.01668235009015449       622.0047352094656
0.016851387551041475      621.5424830395654
0.017021184676619543      621.0884835140363
0.017192039666560827      620.6427366328788
0.017372413817338207      620.2702893434663
0.017551548228302124      619.9247090152386
0.017729791836073705      619.6059956481962
0.017907498824762332      619.3141492423389
0.018085026590318725      619.0491697976664
0.018262733610032132      618.8110573141792
0.018440977279666457      618.5998117918768
0.018620111782963036      618.4154332307595
0.018800486056004474      618.2579216308274
0.018980860449944497      618.3359163953013
0.019159995073081745      618.4459090270124
0.019338238861906984      618.587899525961
0.01951594600057618       618.7618878921471
0.019693473885270874      618.9678741255706
0.019871180993697383      619.2058582262315
0.020049424722219357      619.4758401941297
0.02022855925535152       619.7778200292653
0.0204089335301096        620.1117977316383
0.02057978862980686       620.5041596990179
0.020749585870478253      620.9005605667693
0.020918623449835097      621.3010003348928
0.021087203596881453      621.7054790033881
0.021255631003112355      622.1139965722552
0.021424211188215206      622.5265530414944
0.021593248843479067      622.9431484111053
0.021763046197501558      623.3637826810881
0.02193390144739785       623.7884558514428
0.022104756600747556      624.3437120386322
0.02227455384962815       624.8744274592151
0.02244359139306247       625.3806021131917
0.022612171461619885      625.8622360005619
0.022780598748604386      626.3193291213255
0.022949178775739036      626.7518814754826
0.02311821623655202       627.1598930630333
0.023288013362055097      627.5433638839776
0.023458868351919994      627.9022939383154
0.02363924250270423       628.3248450522
0.023818376913674867      628.7022510439517
0.023996620521453065      629.0345119135708
0.02417432751014825       629.3216276610574
0.02435185527571118       629.5635982864113
0.024529562295431146      629.7604237896327
0.02470780596507209       629.9121041707212
0.024886940468375387      630.0186394296771
0.025067314741423676      630.0800295665006
