% Model:              brazing.mph
% Version:            COMSOL 5.3.0.223
% Date:               Oct 21 2018, 23:59
% Table:              Table 3 - 
% Time (s)               Temperature (Cp_Al = 900, k_Al = 160, sigma_Al = 3.774E7, rho_Al = 2700, Cp_inlet = 900, k_inlet = 160, sigma_inlet = 3.774E7, rho_inlet = 2700, Cp_outlet = 900, k_outlet = 160, sigma_outlet = 3.774E7, rho_outlet = 2700, Cp_outlet_sleeve = 900, k_outlet_sleeve = 160, sigma_outlet_sleeve = 3.774E7, rho_outlet_sleeve = 2700, Cp_inlet_sleeve = 900, k_inlet_sleeve = 160, sigma_inlet_sleeve = 3.774E7, rho_inlet_sleeve = 2700) (degC), Point: 60Temperature (Cp_Al = 900, k_Al = 160, sigma_Al = 3.774E7, rho_Al = 2700, Cp_inlet = 900, k_inlet = 160, sigma_inlet = 3.774E7, rho_inlet = 2700, Cp_outlet = 900, k_outlet = 160, sigma_outlet = 3.774E7, rho_outlet = 2700, Cp_outlet_sleeve = 900, k_outlet_sleeve = 160, sigma_outlet_sleeve = 3.774E7, rho_outlet_sleeve = 2700, Cp_inlet_sleeve = 900, k_inlet_sleeve = 160, sigma_inlet_sleeve = 3.774E7, rho_inlet_sleeve = 2700) (degC), Point: 98Temperature (Cp_Al = 900, k_Al = 160, sigma_Al = 3.774E7, rho_Al = 2700, Cp_inlet = 900, k_inlet = 160, sigma_inlet = 3.774E7, rho_inlet = 2700, Cp_outlet = 900, k_outlet = 160, sigma_outlet = 3.774E7, rho_outlet = 2700, Cp_outlet_sleeve = 900, k_outlet_sleeve = 160, sigma_outlet_sleeve = 3.774E7, rho_outlet_sleeve = 2700, Cp_inlet_sleeve = 900, k_inlet_sleeve = 160, sigma_inlet_sleeve = 3.774E7, rho_inlet_sleeve = 2700) (degC), Point: 134Temperature (Cp_Al = 900, k_Al = 160, sigma_Al = 3.774E7, rho_Al = 2700, Cp_inlet = 900, k_inlet = 160, sigma_inlet = 3.774E7, rho_inlet = 2700, Cp_outlet = 900, k_outlet = 160, sigma_outlet = 3.774E7, rho_outlet = 2700, Cp_outlet_sleeve = 900, k_outlet_sleeve = 160, sigma_outlet_sleeve = 3.774E7, rho_outlet_sleeve = 2700, Cp_inlet_sleeve = 900, k_inlet_sleeve = 160, sigma_inlet_sleeve = 3.774E7, rho_inlet_sleeve = 2700) (degC), Point: 154Temperature (Cp_Al = 900, k_Al = 160, sigma_Al = 3.774E7, rho_Al = 2700, Cp_inlet = 900, k_inlet = 160, sigma_inlet = 3.774E7, rho_inlet = 2700, Cp_outlet = 900, k_outlet = 160, sigma_outlet = 3.774E7, rho_outlet = 2700, Cp_outlet_sleeve = 900, k_outlet_sleeve = 160, sigma_outlet_sleeve = 3.774E7, rho_outlet_sleeve = 2700, Cp_inlet_sleeve = 900, k_inlet_sleeve = 160, sigma_inlet_sleeve = 3.774E7, rho_inlet_sleeve = 2700) (degC), Point: 172Temperature (Cp_Al = 900, k_Al = 160, sigma_Al = 3.774E7, rho_Al = 2700, Cp_inlet = 900, k_inlet = 160, sigma_inlet = 3.774E7, rho_inlet = 2700, Cp_outlet = 900, k_outlet = 160, sigma_outlet = 3.774E7, rho_outlet = 2700, Cp_outlet_sleeve = 900, k_outlet_sleeve = 160, sigma_outlet_sleeve = 3.774E7, rho_outlet_sleeve = 2700, Cp_inlet_sleeve = 900, k_inlet_sleeve = 160, sigma_inlet_sleeve = 3.774E7, rho_inlet_sleeve = 2700) (degC), Point: 210Temperature (Cp_Al = 900, k_Al = 160, sigma_Al = 3.774E7, rho_Al = 2700, Cp_inlet = 900, k_inlet = 160, sigma_inlet = 3.774E7, rho_inlet = 2700, Cp_outlet = 900, k_outlet = 160, sigma_outlet = 3.774E7, rho_outlet = 2700, Cp_outlet_sleeve = 900, k_outlet_sleeve = 160, sigma_outlet_sleeve = 3.774E7, rho_outlet_sleeve = 2700, Cp_inlet_sleeve = 900, k_inlet_sleeve = 160, sigma_inlet_sleeve = 3.774E7, rho_inlet_sleeve = 2700) (degC), Point: 232Temperature (Cp_Al = 900, k_Al = 160, sigma_Al = 3.774E7, rho_Al = 2700, Cp_inlet = 900, k_inlet = 160, sigma_inlet = 3.774E7, rho_inlet = 2700, Cp_outlet = 900, k_outlet = 160, sigma_outlet = 3.774E7, rho_outlet = 2700, Cp_outlet_sleeve = 900, k_outlet_sleeve = 160, sigma_outlet_sleeve = 3.774E7, rho_outlet_sleeve = 2700, Cp_inlet_sleeve = 900, k_inlet_sleeve = 160, sigma_inlet_sleeve = 3.774E7, rho_inlet_sleeve = 2700) (degC), Point: 270
0                        21.130947872112415       21.108320054387548       21.02458151844155        21.009562467369676       21.011454506776317       21.001755265429722       21.118843622641634       21.143725915192647
3                        264.3717737821728        266.93157036623666       259.6408186690944        250.80974010644218       227.54049673811136       221.8748605642316        269.3825138056494        266.5067432390182
6                        386.3899388929025        391.82122524800604       384.4320015067999        375.5866344697208        348.6014340820742        342.78877936038555       394.0512899567036        386.3090717724831
9                        460.3899307442225        462.5265191891609        455.0828747896261        446.2318816617902        421.850828480822         416.17322588796094       464.63400893094035       458.9159183620678
12                       511.1842398962315        509.1848111424139        501.7077696653048        492.855783416893         472.2035731109182        466.6145258847449        511.2184664372496        508.9002477927545
15                       550.0121539783992        544.2716410602501        536.7720885492353        527.9220736858045        510.7492489818312        505.24344059752525       546.2576575544781        547.2370297717349
18                       580.9898336280663        571.9494265513291        564.4348012793238        555.5879039777323        541.5451767620336        536.1187862304574        573.9048501058111        577.924451479193
21                       607.2145056936567        595.2920992314762        587.7670809165736        578.9235863246811        567.6473633555167        562.2949392952436        597.2272520335749        603.9741214577705
24                       630.4139865028724        615.9659918001188        608.4336330767671        599.5934999914953        590.7609385227204        585.4758584094282        617.8874024817944        627.0664539364011
27                       651.561136512818         634.8949567908953        627.3573094184496        618.5203641443259        611.8456474419291        606.62113434182          636.8068937723103        648.1474334793355
