% Model:              brazing.mph
% Version:            COMSOL 5.3.0.223
% Date:               Oct 21 2018, 23:56
% Dimension:          1
% Nodes:              161
% Expressions:        1
% Description:        Line graph
% x                       Height
0                         612.6547313168984
1.9693985890610136E-4     612.6199991546115
3.9298030043864816E-4     612.5964199365524
5.884188308682271E-4      612.583993662721
7.835557095112735E-4      612.5827203331177
9.786925881542028E-4      612.5925999477421
0.0011741311185834375     612.6136325065943
0.0013701715601154056     612.6458180096744
0.0015671114190207022     612.6891564569823
0.0017642608961497635     612.4514392711203
0.0019605081241513326     612.2101820802125
0.0021561515411346144     611.9653848842592
0.002351492352702621      611.7170476832601
0.0025468331642698894     611.4651704772156
0.0027424765812509564     611.2097532661253
0.0029387238092488436     610.9507960499894
0.0031358732863727766     610.688298828808
0.0033326885608882563     610.3229933561948
0.0035286060983021257     609.9626967428891
0.0037239228519497995     609.6074089888903
0.003918938519653848      609.2571300941987
0.004113954187357973      608.9118600588142
0.004309270941005876      608.571598882737
0.004505188478420127      608.2363465659668
0.004702003752936137      607.9061031085038
0.004899138702461749      607.5620149063903
0.005095371599302965      607.2344459935836
0.005291000816927052      606.9233963700837
0.005486327495291825      606.6288660358904
0.005681654173656831      606.350854991004
0.0058772833912816074     606.0893632354241
0.0060735162881239745     605.8443907691511
0.006270651237651189      605.6159375921849
0.006467582778148322      605.4413062441546
0.006663615013526554      605.2994300326933
0.006859045413116663      605.1903089578012
0.0070541741987231454     605.1139430194783
0.007249302984329781      605.0703322177244
0.007444733383920351      605.0594765525398
0.007640765619299351      605.0813760239242
0.007837697159797551      605.1360306318778
0.008034634474091872      605.1336722531383
0.008230672405352359      605.1681255294825
0.008426108448549354      605.2393904609099
0.008621242851524007      605.3474670474209
0.008816377254498534      605.4923552890152
0.009011813297695145      605.6740551856931
0.009207851228955002      605.8925667374543
0.00940478854324844       606.1478899442991
0.00960192671152544       606.4619085393277
0.00979816278359587       606.7908493626086
0.009993795147248338      607.1347124141413
0.010189124956984269      607.493497693926
0.010384454766719743      607.8672052019626
0.010580087130370853      608.2558349382513
0.010776323202439026      608.659386902792
0.01097346137071288       609.0778610955847
0.011170281912174305      609.4513376579669
0.011366204645540166      609.8346357113215
0.011561526547508357      610.2277552556487
0.011756547339625332      610.6306962909483
0.011951568131742307      611.0434588172205
0.0121468900337105        611.466042834465
0.012342812767076368      611.8984483426823
0.0125396333085378        612.3406753418719
0.012736771215691979      612.6280431000879
0.012933007030171178      612.9139787476465
0.013128639138602195      613.1984822845479
0.013323968694306592      613.4815537107919
0.013519298250011432      613.7631930263786
0.013714930358443784      614.043400231308
0.0139111661729252        614.3221753255802
0.014108304080082462      614.5995183091951
0.014305241249097643      614.595058406404
0.014501279037039759      614.593903760683
0.014696714938233999      614.5960543720324
0.014891849199866372      614.6015102404522
0.015086983461498874      614.6102713659423
0.015282419362693495      614.6223377485027
0.01547845715063625       614.6377093881334
0.015675394319652317      614.6563862848344
0.015872325504405583      614.2865189489771
0.01606835738884011       613.9218241433823
0.016263787440706973      613.56230186805
0.016458915880206496      613.2079521229801
0.016654044319705866      612.8587749081727
0.016849474371572262      612.5147702236278
0.017045506256006017      612.1759380693453
0.017242437440758204      611.8422784453253
0.01743957168037589       611.2843199075112
0.017635803876907424      610.716900056879
0.01783143240066149       610.1400188934286
0.018026758388388308      609.5536764171602
0.01822208437611492       608.9578726280736
0.01841771289986836       608.352607526169
0.018613945096398854      607.7378811114462
0.018811079336015085      607.1136933839052
0.019007894687321662      606.4527461341295
0.01920381230049143       605.793920192818
0.019399129129200405      605.1372155599709
0.01959414487161704       604.482632235588
0.01978916061403359       603.8301702196694
0.01998447744274231       603.1798295122151
0.020180395055911654      602.531610113225
0.020377210407217645      601.8855120226993
0.020574360469106157      601.3037954912035
0.020770608273960874      600.7427990193253
0.020966252262493188      600.202522607065
0.021161593642948652      599.6829662544225
0.021356935023404883      599.1841299613978
0.021552579011939476      598.7060137279909
0.021748826816797996      598.2486175542019
0.021945976878691802      597.8119414400308
0.022142917141692885      597.4781150193917
0.022338957981867254      597.1875326406403
0.022534396907280062      596.9401943037766
0.02272953417907009       596.7361000088007
0.02292467145086023       596.5752497557125
0.02312011037627338       596.4576435445119
0.02331615121644832       596.3832813751991
0.023513091479450195      596.352163247774
0.023710025135207962      596.2827028971184
0.02390605945730262       596.2617350599606
0.024101491924457957      596.2892597363008
0.024296622768016963      596.365276926139
0.024491753611575823      596.4897866294752
0.02468718607873073       596.6627888463094
0.024883220400824673      596.8842835766415
0.025080154056581445      597.1542708204714
0.025277299572591536      597.5336549379638
0.025473542893039384      597.934278327951
0.02566918243840792       598.3561409904329
0.025864519396400307      598.7992429254098
0.026059856354392216      599.2635841328814
0.026255495899759323      599.749164612848
0.026451739220204794      600.2559843653091
0.026648884736211575      600.7840433902652
0.02684569473774919       601.3608201957654
0.027041607073256636      601.94314608618
0.027236918672681274      602.5310210615089
0.027431929210095855      603.1244451217522
0.027626939747510428      603.7234182669097
0.027822251346935042      604.3279404969815
0.028018163682442445      604.9380118119676
0.028214973683980002      605.5536322118681
0.028412120943583204      606.1407933349848
0.028608365984047285      606.7169504519502
0.02880400723361381       607.2821035627645
0.02899934588786498       607.8362526674275
0.02919468454211669       608.3793977659394
0.029390325791684838      608.9115388583001
0.02958657083215161       609.4326759445096
0.029783718091758563      609.9428090245679
0.029980652759780888      610.2806868687607
0.030176688080480362      610.6188825536245
0.030372121537075924      610.9573960791594
0.03056725336547531       611.2962274453652
0.030762385193874833      611.635376652242
0.030957818650470807      611.9748436997899
0.031153853971170976      612.3146285880086
0.031350788639194264      612.6547313168984
