% Model:              brazing.mph
% Version:            COMSOL 5.3.0.223
% Date:               Oct 21 2018, 23:51
% Dimension:          1
% Nodes:              225
% Expressions:        1
% Description:        Line graph
% x                       Height
0                         627.134575581023
2.1191841480136804E-4     627.0469583230498
4.2353438892247565E-4     626.9204618929361
6.349689892252786E-4      626.7550862906819
8.463435942227858E-4      626.5508315162871
0.001057779685752053      626.307697569752
0.001269398639759412      626.0256844510762
0.001481321517995422      625.70479216026
0.0017252358262731596     625.2766907002647
0.0019686866163640313     624.8177524993916
0.0022118589563155885     624.3279775576409
0.002454938550168189      623.8073658750127
0.0026981113144448556     623.255917451507
0.0029415629522145732     622.6736322871235
0.0031854785295931678     622.0605103818625
0.0034450106912723537     621.3045052230368
0.0037039863009040125     620.5170592654292
0.003962627412610827      619.6981725090396
0.0042211569424298        618.8478449538683
0.004479798094906585      617.9660765999153
0.004738773785972872      617.05286744718
0.004998306069542035      616.1082174956631
0.005274868491808245      615.0026628341938
0.005550758931995686      613.8801263768685
0.0058262454501036105     612.7406081236876
0.006101597285810183      611.5841080746509
0.006377084073678616      610.4106262297586
0.006652975052596927      609.2201625890103
0.006929538280995558      608.0127171524065
0.007206101510950518      606.7618388924172
0.007481992491406557      605.5285712158703
0.007757479280801014      604.3129141227656
0.00803283111802884       603.1148676131032
0.008308317637660222      601.9344316868834
0.008584208079380276      600.7716063441053
0.008860770503195153      599.6263915847699
0.009120302815147717      598.5514694336608
0.00937927853441616       597.5179185257175
0.009637919714987194      596.5257388609396
0.009896449272866283      595.5749304393271
0.010155090412673047      594.6654932608807
0.010414066050518256      593.7974273255994
0.01067359824059789       592.9707326334839
0.010917512776055054      592.2177917139995
0.011160965100129169      591.5161082340965
0.011404139717480647      590.8656821937745
0.01164722176512739       590.2665135930337
0.011890396591516505      589.7186024318743
0.012133849333188814      589.2219487102957
0.012377764493855997      588.7765524282984
0.01258968694000722       588.4318184301853
0.012801305803204788      588.1279189749821
0.013012742322906452      587.8648540626882
0.013224118052332232      587.642623693304
0.01343555464954572       587.4612278668297
0.013647173667633327      587.3206665832646
0.013859096345786744      587.2209398426094
0.014071014760598048      587.1782114810076
0.014282630734729056      587.1755068617819
0.01449406533504172       587.2128259849324
0.014705439940049088      587.290168850459
0.014916876031588231      587.4075354583622
0.015128494985605482      587.5649258086413
0.015340417863851432      587.7623399012967
0.01558433217214941       588.0079905768924
0.015827782962260412      588.3122636029589
0.016070955302232025      588.6751589794959
0.016314034896104664      589.0966767065038
0.0165572076604014        589.5768167839827
0.01680065929819124       590.1155792119323
0.01704457487559009       590.7129639903527
0.01730410703726679       591.3648773551719
0.017563082646895985      592.0571199516007
0.01782172375860034       592.7896917796392
0.018080253288416847      593.5625928392873
0.01833889444089119       594.3758231305454
0.018597870131955005      595.2293826534127
0.018857402415521692      596.12327140789
0.019133964837753384      597.0830024199754
0.019409855277906563      598.0612655326141
0.019685341795980367      599.0580607458062
0.019960693631652874      600.0733880595513
0.0202361804194872        601.1072474738503
0.020512071398371242      602.159638988702
0.020788634626735362      603.2305626041071
0.02106519785666259       604.2776362750576
0.021341088837091095      605.3129748378617
0.021616575626458134      606.3365782925196
0.02189192746365859       607.3484466390313
0.022167413983262562      608.3485798773969
0.02244330442495508       609.3369780076159
0.022719866848742224      610.3136410296889
0.022979399160698737      611.1329650775306
0.023238374879971102      611.9303223854339
0.023497016060546046      612.7057129533987
0.023755545618429033      613.4591367814248
0.02401418675823971       614.1905938695128
0.024273162396088833      614.9000842176621
0.024532694586172417      615.587607825873
0.02477660912165014       616.1574107611525
0.02502006144574469       616.6940552744704
0.025263236063116538      617.197541365827
0.025506318110783622      617.6678690352221
0.025749492937193107      618.105038282656
0.02599294567888585       618.5090491081281
0.026236860839573585      618.8799015116391
0.026448783285734738      619.1479496234957
0.02666040214894219       619.3980660950297
0.026871838668653707      619.6302509262405
0.027083214398089334      619.8445041171286
0.027294650995312687      620.0408256676941
0.027506270013410168      620.2192155779364
0.02771819269157351       620.3796738478562
0.02793011110637494       620.4500417351385
0.028141727080496122      620.5012405595032
0.028353161680798985      620.5332703209504
0.028564536285796558      620.5461310194798
0.028775972377325904      620.5398226550922
0.028987591331333325      620.5143452277865
0.029199514209569403      620.4696987375636
0.02944342851784522       620.2894619789967
0.02968687930793418       620.0670949349991
0.02993005164788383       619.8025976055707
0.030173131241734534      619.4959699907118
0.0304163040060093        619.1472120904227
0.0306597556437771        618.7563239047026
0.030903671221153783      618.323305433552
0.031163203382828072      617.7052859483326
0.03142217899245488       617.0425835435349
0.03168082010415685       616.3351982191584
0.03193934963397098       615.5831299752036
0.032197990786442934      614.7863788116706
0.03245696647750436       613.9449447285587
0.032716498761068635      613.0588277258685
0.03299306118333142       611.9431821036334
0.03326895162351545       610.8066554759585
0.03354443814161999       609.6492478428437
0.03381978997732317       608.4709592042891
0.034095276765188226      607.2717895602951
0.03437116774410313       606.0517389108609
0.03464773097249833       604.8108072559871
0.034924294202460265      603.501012360509
0.03520018518292322       602.211216580036
0.03547567197232456       600.941419914568
0.035751023809559274      599.6916223641052
0.036026510329197556      598.4618239286476
0.036302400770924524      597.2520246081949
0.03657896319474637       596.0622244027475
0.036838495506703706      594.9442567868132
0.03709747122597688       593.8786180204323
0.037356112406552636      592.8653081036049
0.03761464196443644       591.9043270363309
0.03787328310424792       590.9956748186106
0.03813225874209787       590.1393514504434
0.03839179093218227       589.33535693183
0.03863570546763781       588.6075166829139
0.038879157791710306      587.9433204892224
0.03912233240906017       587.3427683507555
0.03936541445670531       586.8058602675131
0.039608589283092806      586.3325962394958
0.039852042024763494      585.9229762667028
0.04009595718542905       585.5770003491346
0.040307879631580334      585.3113100920916
0.04051949849477797       585.0963790970288
0.0407309350144797        584.9322073639461
0.040942310743905544      584.8187948928434
0.04115374734111909       584.7561416837211
0.04136536635920676       584.7442477365787
0.04157728903736024       584.7831130514165
0.04178920745215007       584.8789015265558
0.042000823426259694      585.0239466287826
0.042212258026551035      585.2182483580971
0.04242363263153709       585.4618067144992
0.0426350687230549        585.7546216979891
0.042846687677050764      586.0966933085665
0.04305861055527523       586.4880215462317
0.04330252486354604       586.9649409263308
0.043545975653630026      587.5088833125465
0.04378914799357473       588.1198487048788
0.044032227587420474      588.7978371033275
0.04427540035169028       589.5428485078932
0.04451885198945311       590.354882918575
0.044762767566824783      591.2339403353736
0.045022299728516735      592.1987391040701
0.04528127533816108       593.2096370416393
0.045539916449880535      594.266634148081
0.045798445979712124      595.3697304233955
0.046057087132201545      596.5189258675831
0.04631606282328052       597.7142204806429
0.046575595106862454      598.9556142625756
0.04685215752913061       600.2792250179077
0.04712804796931999       601.6257304226527
0.04740353448742985       602.9951304768105
0.04767888632313835       604.3874251803812
0.04795437311100872       605.8026145333649
0.048230264089928976      607.2406985357615
0.048506827318329566      608.7016771875709
0.04878339054829114       610.0911275917439
0.049059281528753745      611.4603280324416
0.04933476831815475       612.809278509664
0.0496101201553891        614.1379790234112
0.04988560667502701       615.4464295736835
0.05016149711675364       616.7346301604803
0.050438059540575134      618.002580783802
0.05069759185254397       619.0243414169975
0.05095656757182859       620.0002267603912
0.05121520875241573       620.9302368139828
0.05147373831031092       621.8143715777727
0.051732379450133786      622.6526310517611
0.05199135508799517       623.4450152359473
0.05225088727809108       624.1915241303318
0.0524948018135407        624.7746510999061
0.052738254137607306      625.299573775417
0.05298142875495131       625.7662921568643
0.05322451080259058       626.1748062442482
0.0534676856289722        626.525116037569
0.05371113837063701       626.8172215368261
0.05395505353129665       627.0511227420199
0.05416697597743634       627.1870030863413
0.054378594840622414      627.28156392727
0.05459003136031263       627.3348052648058
0.05480140708972696       627.346727098949
0.05501284368692898       627.3173294297
0.0552244627050051        627.2466122570577
0.05543638538314697       627.134575581023
