% Model:              brazing.mph
% Version:            COMSOL 5.3.0.223
% Date:               Oct 22 2018, 00:04
% Dimension:          1
% Nodes:              225
% Expressions:        1
% Description:        Line graph
% x                       Height
0                         647.6370342826118
2.02242572596226E-4       647.6263678262222
4.040113375593453E-4      647.55465145697
6.054635867748898E-4      647.421885174855
8.067573541103817E-4      647.2280689798771
0.0010080510467017985     646.9732028720365
0.001209503071861434      646.6572868513332
0.0014112714639836859     646.2803209177672
0.001613513515825394      645.8423050713383
0.001815803045808458      645.4479806328508
0.0020176184164428694     645.0087057392012
0.0022191170764546647     644.5244803903894
0.0024204572175778446     643.9953045864153
0.00262179740518867       643.421178327279
0.002823296204553664      642.8021016129804
0.0030251118070788686     642.1380744435199
0.003227401660948015      641.429096818897
0.0034297372965816655     640.7399787009333
0.003631598594156443      640.0153531873315
0.0038331430353414214     639.2552202780915
0.004034528845142556      638.4595799732135
0.004235914622467191      637.6284322726974
0.004437458966299354      636.7617771765433
0.004639320101874085      635.8596146847511
0.004841655511239337      634.9219447973207
0.005043918276497792      634.0622992008433
0.005245706959792293      633.1912529510494
0.0054471789681153834     632.3088060479394
0.00564849245128538       631.414958491513
0.005849805932728159      630.5097102817703
0.006051277935873691      629.5930614187113
0.00625306661055245       628.6650119023359
0.006455329363777148      627.7255617326443
0.0066576887471433525     626.8150063354916
0.0068595736811967985     625.9224604478144
0.007061141707903535      625.047924069613
0.007262551112883539      624.1913972008872
0.007463960555734714      623.352879841637
0.007665528695965537      622.5323719918625
0.00786741381892875       621.7298736515637
0.0080697734661485        620.9453848207405
0.008272395437950266      620.2381879934499
0.008474540847339949      619.5537416540393
0.008676367906616744      618.8920458025092
0.008878035577337231      618.2531004388591
0.009079703197965442      617.6369055630892
0.009281530107084053      617.0434611751995
0.00948367526660416       616.47276727519
0.009686296889411194      615.9248238630607
0.009888748367913874      615.5717146229825
0.010090724718905934      615.2560745586696
0.010292383720552634      614.977903670122
0.010493883896490891      614.7372019573396
0.010695384145210549      614.5339694203224
0.010897043365029401      614.3682060590705
0.011099020079070253      614.2399118735838
0.011301472064648224      614.1490868638623
0.011503924099142101      614.157035949905
0.011705900863193036      614.2035322682515
0.011907560133099505      614.2885758189019
0.012109060430962503      614.412166601856
0.012310560654077738      614.574304617114
0.012512219699917606      614.7749898646758
0.012714196091111104      615.0142223445415
0.012916647604829811      615.2920020567111
0.013119269382981878      615.7129786811204
0.013321414683399362      616.164610352458
0.013523241722808088      616.6468970707239
0.013724909467002238      617.1598388359181
0.013926577258472442      617.7034356480406
0.014128404439597363      618.2776875070914
0.014330549975836581      618.8825944130706
0.01453317208336263       619.5181563659779
0.014735531766219815      620.2200393145238
0.014937416940401616      620.9343955653997
0.015138985143475461      621.6612251186058
0.015340394656791169      622.400527974142
0.015541804135826716      623.1523041320085
0.015743372236141022      623.9165535922051
0.015945257239325793      624.6932763547319
0.01614761668334845       625.4824724195888
0.01634987940592303       626.380119728912
0.016551668047823844      627.2654945347339
0.016753140015983766      628.1385968370549
0.0169544534601584        628.9994266358748
0.017155766903708087      629.8479839311935
0.017357238869994664      630.6842687230111
0.017559027508778132      631.5082810113278
0.01776129022699866       632.3200207961432
0.017963625484858744      633.1582602478403
0.018165486461237414      633.9724123893907
0.018367030641941378      634.7624772207944
0.018568416255992027      635.5284547420515
0.018769801906169285      636.270344953162
0.018971346195167795      636.9881478541258
0.019173207351754082      637.6818634449431
0.019375542861313405      638.3514917256136
0.019577832661189145      639.039857512866
0.019779648217873542      639.6779404499447
0.019981146975907166      640.2657405368498
0.020182487123025287      640.8032577735813
0.020383827220813066      641.2904921601393
0.020585325830972126      641.7274436965234
0.020787141141585735      642.1141123827344
0.020989430597769934      642.4504982187715
0.021191672662378012      642.8839688593181
0.021393441061935803      643.2560527595512
0.02159489309031221       643.5667499194709
0.021796186783028852      643.8160603390775
0.021997480548535182      644.0039840183705
0.022198932795108938      644.1305209573503
0.022400701557758636      644.1956711560166
0.02260294412950465       644.1994346143697
0.02280539620920995       644.2473325822858
0.023007373018156245      644.2315776651454
0.02320903233274668       644.1521698629487
0.023410532675187733      644.0091091756954
0.023612032942881025      643.8023956033857
0.023813692033404853      643.5320291460193
0.024015668469493705      643.1980098035968
0.024218120028423832      642.8003375761177
0.024420742013481003      642.4209547604174
0.02462288751935683       641.9894913502604
0.02482471476325633       641.5059473456469
0.02502638271145666       640.9703227465767
0.025228050706933344      640.38261755305
0.025429878092549915      639.7428317650664
0.025632023834248962      639.0509653826265
0.025834646148682177      638.3070184057299
0.026037006051731277      637.5589442997486
0.026238891444565628      636.7718273102529
0.02644045986526205       635.9456674372426
0.026641869595683754      635.0804646807177
0.02684327929182417       634.1762190406782
0.027044847609757647      633.2329305171241
0.02724673283158932       632.2505991100556
0.027449092495796006      631.2292248194725
0.02765135518998453       630.2329441056036
0.027853143803698084      629.2283178265528
0.028054615743803996      628.2153459823203
0.028255929159991804      627.1940285729061
0.028457242575555555      626.1643655983102
0.028658714513790734      625.1263570585323
0.028860503124391312      624.080002953573
0.029062765814231884      623.0253032834316
0.029265100752448706      621.9763413748772
0.02946696141141544       620.9520959450575
0.029668505276199596      619.9525669939725
0.029869890575077548      618.9777545216224
0.03007127591008127       618.027658528007
0.030272819883157453      617.1022790131262
0.03047468072232762       616.2016159769803
0.030677015912237836      615.325669419569
0.030879305594778746      614.522833493638
0.03108112103494649       613.7563754806175
0.031282619677010744      613.0262953805073
0.03148395970843373       612.3325931933075
0.0316852996905265        611.6752689190181
0.031886798184716555      611.054322557639
0.032088613378814135      610.4697541091703
0.03229090271766436       609.9215635736118
0.03249314477533616       609.5505760084887
0.03269491316800606       609.2325742780367
0.03289636518952694       608.9675583822559
0.03309765887540427       608.7555283211461
0.033298952634071295      608.5964840947074
0.033500404873789524      608.4904257029399
0.03370217362955133       608.4373531458433
0.03390441619436107       608.437266423418
0.03410686840969767       608.5379423166145
0.03430884535332711       608.691925245057
0.0345105048019665        608.8992152087458
0.034712005278138794      609.1598122076806
0.03491350567956333       609.4737162418616
0.03511516490413611       609.8409273112887
0.035317141474908095      610.261445415962
0.03551959316946952       610.7352705558815
0.035722216260139425      611.3467418931351
0.03592436286389621       611.9989895628275
0.036126191200505704      612.6920135649586
0.03632786023882611       613.4258138995284
0.03652952932442421       614.2003905665368
0.036731357802754806      615.0157435659842
0.03693350464234149       615.8718728978699
0.03713612806239678       616.7687785621946
0.03733848789969145       617.725297873895
0.037540373227224554      618.7017139400897
0.03774194158292153       619.6980267607786
0.03794335124849304       620.7142363359619
0.03814476087977932       621.7503426656394
0.03834632913270157       622.8063457498114
0.03854821428921239       623.8822455884774
0.038750573887637245      624.9780421816379
0.03895283596123875       626.1372118324692
0.039154623958694366      627.2834743013378
0.039356095285438375      628.4168295882436
0.03955740808971597       629.5372776931864
0.03975872089337115       630.6448186161665
0.03996019221824938       631.7394523571835
0.04016198021260023       632.8211789162378
0.04036424228186526       633.8899982933293
0.040566577948397485      634.9457618132743
0.040768439330593605      635.9675497034932
0.04096998391520435       636.955361963986
0.04117136993220262       637.9091985947526
0.04137275598532357       638.8290595957931
0.04157430067821714       639.7149449671074
0.04177616224060133       640.5668547086957
0.0419784981588055        641.3847888205577
0.04218078754816035       642.1863720142229
0.04238260269718259       642.9271998226636
0.04258410104946696       643.6072722458797
0.04278544079179545       644.2265892838711
0.04298678048479618       644.7851509366379
0.043188278689213704      645.2829572041802
0.043390093592177985      645.7200080864977
0.04359238263785921       646.0963035835908
0.043794623705544454      646.5218557227398
0.04399639111513442       646.8808476328112
0.04419784215819482       647.1732793138051
0.04439913486792596       647.3991507657215
0.044600427650446826      647.5584619885603
0.04480187891170468       647.6512129823218
0.045003646684386715      647.6774037470055
0.04520588825921017       647.6370342826118
