% Model:              brazing.mph
% Version:            COMSOL 5.3.0.223
% Date:               Oct 23 2018, 12:32
% Dimension:          1
% Nodes:              225
% Expressions:        1
% Description:        Line graph
% x                       Height
0                         676.8795141755918
2.3022181212578358E-4     676.7689283268851
4.5999325066962656E-4     676.625730539931
6.894940081029028E-4      676.4499208147289
9.189044129547812E-4      676.2414991512792
0.001148405006736289      676.000465549582
0.0013781761183620641     675.7268200096366
0.001608397441069865      675.4205625314439
0.001839314118928521      674.7480876124285
0.0020697760201574002     674.0758833395156
0.002299964597801726      673.4039497127051
0.0025300619515304015     672.732286731997
0.0027602503975112853     672.0608943973916
0.0029907120357255193     671.3897727088882
0.003221628319839081      670.7189216664876
0.0034518885683530987     669.8415655396228
0.0036816980188178403     668.9592107814013
0.003911236592567028      668.0718573918228
0.004140684848157368      667.1795053708875
0.004370223557282477      666.2821547185956
0.004600033278179856      665.3798054349467
0.004830293931548535      664.4724575199409
0.005060048526376791      663.3606403256584
0.005289355629682316      662.2643238022457
0.005518393850920054      661.1835079497022
0.005747342428834         660.1181927680282
0.00597638081262499       659.068378257224
0.006205688240655705      658.034064417289
0.006435443321622868      657.0152512482236
0.006665339619110656      655.8992615001666
0.006894787442849326      654.8067263794862
0.007123965728649401      653.7376458861826
0.007353054043912613      652.6920200202557
0.007582232167524012      651.6698487817057
0.007811679667266285      650.6711321705321
0.008041575479707366      649.6958701867354
0.008271887219609135      648.6990091561437
0.008501747728772392      647.7393355476444
0.008731337046705121      646.8168493612372
0.008960835851156599      645.9315505969225
0.009190425033567954      645.0834392547004
0.009420285272008154      644.2725153345702
0.009650596606620833      643.4987788365327
0.009881512912836019      642.7419582921643
0.010111974573021956      642.0348518718502
0.010342163040896366      641.37745957559
0.010572260416492441      640.7697814033842
0.010802449016030204      640.2118173552328
0.011032910939230619      639.7035674311352
0.011263827639190652      639.2450316310919
0.011494048967061755      638.8054733869798
0.011723820083820682      638.4381030007415
0.011953320682717213      638.1429204723769
0.012182731092678062      637.9199258018863
0.012412231855226382      637.7691189892696
0.012642003298903411      637.6905000345266
0.012872225116192546      637.6840689376576
0.013102446994778118      637.5592685174299
0.013332218499393473      637.5234376737461
0.01356171932266464       637.5765764066059
0.013791129793276359      637.7186847160093
0.01402063045289555       637.9497626019568
0.014250401630592404      638.2698100644476
0.014480623019759359      638.6788271034823
0.014711539835704642      638.9496563575515
0.014942001874208778      639.2973876196343
0.015172190588640395      639.7220208897303
0.01540228807899374       640.22355616784
0.015632476661762654      640.8019934539634
0.015862938437253588      641.4573327480999
0.01609385485945594       642.18957405025
0.016324115336228646      642.8489623457734
0.016553925013622208      643.5485475636422
0.016783463813500554      644.2883297038563
0.017012912294953733      645.0683087664157
0.01724245123020976       645.8884847513208
0.01747226117803945       646.7488576585707
0.017702522059672054      647.6494274881662
0.017932276794613372      648.5377336759343
0.018161584037218948      649.454737069871
0.018390622397267263      650.4004376699763
0.018619571113827754      651.37483547625
0.018848609636427344      652.3779304886926
0.019077917203754128      653.4097227073037
0.019307672424828403      654.4702121320834
0.019537568573699274      655.4189312672725
0.01976701624968263       656.3870812559252
0.019996194388245302      657.3746620980413
0.020225282556443316      658.3816737936211
0.020454460532815345      659.4081163426646
0.02068390788479834       660.4539897451713
0.020913803548616574      661.5192940011417
0.02114411498977932       662.355005228864
0.021373975201947604      663.207331564312
0.02160356422393484       664.0762730074855
0.02183306273279162       664.9618295583848
0.02206265161925901       665.8640012170101
0.02229251156070728       666.7827879833607
0.02252282259658549       667.7181898574372
0.022753738766914562      668.3083793248749
0.022984200292012823      668.9038192455321
0.023214388625279938      669.504509619409
0.023444485866429166      670.1104504465053
0.023674674331359946      670.7216417268216
0.023905136119473275      671.3380834603573
0.024136052683548088      671.9597756471128
0.024366274021741702      672.165646582005
0.024596045148762867      672.3730823941943
0.024825545757885373      672.5820830836805
0.02505495617806012       672.7926486504637
0.02528445695083446       673.0047790945442
0.025514228404773787      673.2184744159215
0.025744450232385536      673.4337346145959
0.025974672267095825      673.3119851439809
0.026204443926923768      673.1638476321233
0.02643394490485871       672.9893220790228
0.02666335552995085       672.7884084846796
0.026892856344233315      672.5611068490939
0.02712262767714175       672.3074171722651
0.02735284922243193       672.0273394541937
0.027583766528201624      671.3818379755807
0.027814229053652367      670.7247060172818
0.028044418253299775      670.0559435792973
0.02827451622829193       669.375550661627
0.028504705296278778      668.6835272642712
0.028735167558720572      667.9798733872293
0.028966084470753738      667.2645890305018
0.029196345605491433      666.4050588101551
0.02942615593701711       665.5172329623666
0.02965569538872289       664.6011114871364
0.029885144521236064      663.6566943844648
0.030114684108324883      662.6839816543517
0.030344494710297387      661.6829732967967
0.030574756249911007      660.6536693118003
0.030804511377321087      659.5206611812412
0.031033819010118435      658.3825573743618
0.031262857758987544      657.2393578911621
0.03149180686390927       656.0910627316424
0.031720845775323685      654.9376718958026
0.031950153732830305      653.7791853836424
0.032179909346355486      652.6156031951622
0.0324098051544111        651.4515338730132
0.032639252491552244      650.2983882039247
0.03286843029245836       649.1561661878962
0.0330975181233935        648.0248678249283
0.03332669576210278       646.9044931150208
0.03355614277523119       645.7950420581735
0.033786038098215655      644.6965146543866
0.034016348759356954      643.6376951597701
0.03424620819605658       642.6147504322588
0.034475796445315066      641.6276804718525
0.03470529418235937       640.6764852785515
0.03493488229610333       639.7611648523559
0.035164741462093585      638.8817191932653
0.03539505171796626       638.0381483012802
0.035625967353597694      637.2497044509519
0.03585642834714083       636.5173488123907
0.036086616150743635      635.8410813855966
0.03631671286286018       635.2209021705694
0.03654690079812825       634.6568111673097
0.036777362054689705      634.1488083758168
0.03700827808407173       633.696893796091
0.03723849938140827       633.2948649534127
0.03746827046781093       632.9711648355342
0.03769777103645843       632.7257934424553
0.03792718141620601       632.5587507741759
0.0381566821485052        632.4700368306966
0.03838645356182577       632.4596516120167
0.03861667534858004       632.5275951181367
0.038846895274787324      632.525689323484
0.039076664838430766      632.6178501223158
0.03930616372759302       632.8040775146318
0.03953557226638858       633.0843715004323
0.039765070991905134      633.4587320797176
0.039994840228642616      633.9271592524871
0.040225059665450036      634.489653018741
0.04045597761776665       634.9675671200857
0.04068644078597457       635.5233445259795
0.04091663062609736       636.1569852364219
0.041146729240799984      636.868489251413
0.04137691894925231       637.6578565709534
0.04160738185443156       638.5250871950423
0.04183829941298208       639.47018112368
0.04206856149768976       640.3743613055086
0.04229837277362926       641.3159378102343
0.04252791316640542       642.2949106378572
0.04275736323887129       643.3112797883773
0.04298690376702529       644.365045261795
0.04321671531340127       645.4562070581095
0.04344697780296935       646.5847651773214
0.043676731016186174      647.7585634103566
0.04390603674591497       648.9436745382168
0.04413507359840861       650.140098560902
0.04436402080919017       651.3478354784121
0.044593057824233256      652.5668852907476
0.04482236387867965       653.7972479979078
0.045052117578024006      655.0389235998931
0.045282012653644836      656.2731098990536
0.045511459262636354      657.49557435234
0.04574063633797325       658.7063169597523
0.04596972344420469       659.9053377212905
0.046198900357357554      661.092636636955
0.046428346642361965      662.2682137067452
0.04665824123294997       663.4320689306614
0.04688855484177433       664.4966316335893
0.04711841720894409       665.5430853756677
0.04734800837831597       666.5714301568961
0.04757750903201372       667.5816659772751
0.047807100065861544      668.5737928368045
0.04803696216230292       669.5478107354841
0.04826727536583021       670.5037196733141
0.048498193048686675      671.2378665947589
0.048728656077441146      671.9514211784361
0.04895884590902903       672.6443834243462
0.04918894464672031       673.316753332489
0.04941913460997818       673.9685309028649
0.04964959790176041       674.5997161354732
0.04988051597838159       675.2103090303144
0.05011073543954296       675.4807028911398
0.0503405047004922        675.740451424322
0.05057000345013497       675.9895546298617
0.05079941201302823       676.2280125077583
0.05102891092631677       676.4558250580126
0.05125868051417213       676.6729922806235
0.051488900464733596      676.8795141755918
