% Model:              brazing.mph
% Version:            COMSOL 5.3.0.223
% Date:               Oct 23 2018, 12:18
% Dimension:          1
% Nodes:              225
% Expressions:        1
% Description:        Line graph
% x                       Height
0                         657.0926447152974
2.3022181212578358E-4     656.9689585659797
4.5999325066962656E-4     656.8165870481142
6.894940081029028E-4      656.6355301617008
9.189044129547812E-4      656.4257879067393
0.001148405006736289      656.1873602832303
0.0013781761183620641     655.920247291173
0.001608397441069865      655.6244489305681
0.001839314118928521      654.9515610054033
0.0020697760201574002     654.2813839395448
0.002299964597801726      653.613917732992
0.0025300619515304015     652.9491623857454
0.0027602503975112853     652.287117897805
0.0029907120357255193     651.6277842691705
0.003221628319839081      650.9711614998423
0.0034518885683530987     650.1073174657621
0.0036816980188178403     649.2370586399257
0.003911236592567028      648.3603850223329
0.004140684848157368      647.477296612984
0.004370223557282477      646.587793411879
0.004600033278179856      645.6918754190175
0.004830293931548535      644.7895426343998
0.005060048526376791      643.6941560919691
0.005289355629682316      642.6125717700271
0.005518393850920054      641.5447896685736
0.005747342428834         640.4908097876087
0.00597638081262499       639.4506321271326
0.006205688240655705      638.4242566871447
0.006435443321622868      637.4116834676457
0.006665339619110656      636.3112702316824
0.006894787442849326      635.2323334644777
0.007123965728649401      634.1748731660314
0.007353054043912613      633.1388893363436
0.007582232167524012      632.1243819754145
0.007811679667266285      631.1313510832437
0.008041575479707366      630.1597966598314
0.008271887219609135      629.1739904706455
0.008501747728772392      628.2238465782457
0.008731337046705121      627.3093649826317
0.008960835851156599      626.4305456838038
0.009190425033567954      625.587388681762
0.009420285272008154      624.7798939765058
0.009650596606620833      624.0080615680359
0.009881512912836019      623.2581289864761
0.010111974573021956      622.5567161183249
0.010342163040896366      621.9038229635823
0.010572260416492441      621.2994495222482
0.010802449016030204      620.743595794323
0.011032910939230619      620.2362617798061
0.011263827639190652      619.777447478698
0.011494048967061755      619.3390063775953
0.011723820083820682      618.973295938091
0.011953320682717213      618.6803161601853
0.012182731092678062      618.460067043878
0.012412231855226382      618.3125485891694
0.012642003298903411      618.2377607960592
0.012872225116192546      618.2357036645476
0.013102446994778118      618.1003817773005
0.013332218499393473      618.0566350705388
0.01356171932266464       618.1044635442622
0.013791129793276359      618.243867198471
0.01402063045289555       618.4748460331652
0.014250401630592404      618.7974000483445
0.014480623019759359      619.2115292440091
0.014711539835704642      619.4711488808074
0.014942001874208778      619.8093972351958
0.015172190588640395      620.2262743071744
0.01540228807899374       620.721780096743
0.015632476661762654      621.2959146039022
0.015862938437253588      621.9486778286512
0.01609385485945594       622.6800697709905
0.016324115336228646      623.3322494979889
0.016553925013622208      624.0235683916392
0.016783463813500554      624.7540264519411
0.017012912294953733      625.5236236788948
0.01724245123020976       626.3323600725006
0.01747226117803945       627.1802356327578
0.017702522059672054      628.0672503596669
0.017932276794613372      628.9493929820213
0.018161584037218948      629.8583141162297
0.018390622397267263      630.7940137622923
0.018619571113827754      631.7564919202088
0.018848609636427344      632.7457485899797
0.019077917203754128      633.7617837716044
0.019307672424828403      634.8045974650834
0.019537568573699274      635.7454590829161
0.01976701624968263       636.7035685560137
0.019996194388245302      637.6789258843761
0.020225282556443316      638.6715310680034
0.020454460532815345      639.6813841068958
0.02068390788479834       640.7084850010528
0.020913803548616574      641.7528337504748
0.02114411498977932       642.5794127298368
0.021373975201947604      643.4210100859358
0.02160356422393484       644.2776258187715
0.02183306273279162       645.1492599283441
0.02206265161925901       646.0359124146539
0.02229251156070728       646.9375832777002
0.02252282259658549       647.8542725174837
0.022753738766914562      648.4387464011027
0.022984200292012823      649.0272237495763
0.023214388625279938      649.6197045629043
0.023444485866429166      650.2161888410873
0.023674674331359946      650.8166765841252
0.023905136119473275      651.4211677920173
0.024136052683548088      652.0296624647643
0.024366274021741702      652.2348201024679
0.024596045148762867      652.4425868538926
0.024825545757885373      652.6529627190387
0.02505495617806012       652.8659476979061
0.02528445695083446       653.0815417904951
0.025514228404773787      653.2997449968051
0.025744450232385536      653.5205573168365
0.025974672267095825      653.3971969128075
0.026204443926923768      653.2516606115374
0.02643394490485871       653.0839484130257
0.02666335552995085       652.8940603172726
0.026892856344233315      652.6819963242784
0.02712262767714175       652.4477564340426
0.02735284922243193       652.1913406465655
0.027583766528201624      651.5546425785235
0.027814229053652367      650.9090395783882
0.028044418253299775      650.2545316461598
0.02827451622829193       649.5911187818381
0.028504705296278778      648.9188009854236
0.028735167558720572      648.2375782569153
0.028966084470753738      647.5474505963142
0.029196345605491433      646.7044068257017
0.02942615593701711       645.8324772510563
0.02965569538872289       644.9316618723783
0.029885144521236064      644.0019606896674
0.030114684108324883      643.043373702924
0.030344494710297387      642.0559009121474
0.030574756249911007      641.0395423173384
0.030804511377321087      639.9268703437542
0.031033819010118435      638.8074080292173
0.031262857758987544      637.6811553737269
0.03149180686390927       636.5481123772836
0.031720845775323685      635.4082790398875
0.031950153732830305      634.2616553615378
0.032179909346355486      633.1082413422353
0.0324098051544111        631.9619840527969
0.032639252491552244      630.8247956880824
0.03286843029245836       629.6966762480915
0.0330975181233935        628.5776257328246
0.03332669576210278       627.4676441422816
0.03355614277523119       626.3667314764621
0.033786038098215655      625.2748877353666
0.034016348759356954      624.2282886034608
0.03424620819605658       623.2162960744083
0.034475796445315066      622.2389101482094
0.03470529418235937       621.2961308248638
0.03493488229610333       620.387958104372
0.035164741462093585      619.5143919867334
0.03539505171796626       618.6754324719484
0.035625967353597694      617.8955032038814
0.03585642834714083       617.1706703100322
0.036086616150743635      616.5009337904006
0.03631671286286018       615.886293644987
0.03654690079812825       615.3267498737912
0.036777362054689705      614.8223024768129
0.03700827808407173       614.3729514540526
0.03723849938140827       613.9741616257157
0.03746827046781093       613.6544154361823
0.03769777103645843       613.4137128854522
0.03792718141620601       613.2520539735256
0.0381566821485052        613.1694387004028
0.03838645356182577       613.1658670660829
0.03861667534858004       613.2413390705668
0.038846895274787324      613.2315951823177
0.039076664838430766      613.3185903709888
0.03930616372759302       613.5023246365798
0.03953557226638858       613.7827979790909
0.039765070991905134      614.1600103985223
0.039994840228642616      614.6339618948736
0.040225059665450036      615.2046524681451
0.04045597761776665       615.6738102155865
0.04068644078597457       616.2227868026181
0.04091663062609736       616.8515822292392
0.041146729240799984      617.5601964954503
0.04137691894925231       618.3486296012516
0.04160738185443156       619.2168815466424
0.04183829941298208       620.1649523316233
0.04206856149768976       621.0648217335702
0.04229837277362926       622.0011549270333
0.04252791316640542       622.9739519120129
0.04275736323887129       623.9832126885087
0.04298690376702529       625.0289372565212
0.04321671531340127       626.1111256160498
0.04344697780296935       627.2297777670949
0.043676731016186174      628.3992262145289
0.04390603674591497       629.5784563383928
0.04413507359840861       630.7674681386867
0.04436402080919017       631.9662616154105
0.044593057824233256      633.1748367685645
0.04482236387867965       634.3931935981481
0.045052117578024006      635.6213321041619
0.045282012653644836      636.8485181409343
0.045511459262636354      638.0620332806357
0.04574063633797325       639.2618775232656
0.04596972344420469       640.4480508688242
0.046198900357357554      641.6205533173119
0.046428346642361965      642.7793848687278
0.04665824123294997       643.9245455230727
0.04688855484177433       644.9781012741374
0.04711841720894409       646.0120149064317
0.04734800837831597       647.0262864199556
0.04757750903201372       648.020915814709
0.047807100065861544      648.9959030906925
0.04803696216230292       649.9512482479054
0.04826727536583021       650.8869512863479
0.048498193048686675      651.6096265346431
0.048728656077441146      652.3102586040973
0.04895884590902903       652.9888474947104
0.04918894464672031       653.6453932064825
0.04941913460997818       654.2798957394137
0.04964959790176041       654.8923550935035
0.04988051597838159       655.4827712687526
0.05011073543954296       655.7412533443269
0.0503405047004922        655.9902353683548
0.05057000345013497       656.2297173408361
0.05079941201302823       656.459699261771
0.05102891092631677       656.6801811311598
0.05125868051417213       656.8911629490017
0.051488900464733596      657.0926447152974
