% Model:              brazing.mph
% Version:            COMSOL 5.3.0.223
% Date:               Oct 23 2018, 13:07
% Dimension:          1
% Nodes:              193
% Expressions:        1
% Description:        Line graph
% x                       Height
0                         632.1845594588102
1.6028433640637486E-4     632.2650278387757
3.201839556876346E-4      632.3386894791398
4.7982673004648776E-4     632.4055443799022
6.393411493738095E-4      632.465592541063
7.988560137323205E-4      632.5188339626221
9.58500122107595E-4       632.5652686445798
0.0011184019611720658     632.6048965869358
0.0012786893978073315     632.6377177896902
0.0014692881782178572     632.6635676953136
0.0016592398034323465     632.6717794660057
0.0018487589083489172     632.6623531017659
0.00203806159906999       632.6352886025945
0.0022273647228667317     632.5905859684915
0.0024168851255237504     632.5282451994567
0.002606838908709185      632.4482662954904
0.0027974407000143733     632.3506492565924
0.003000214284638094      632.2267633715452
0.0032022105766743216     632.0858104264684
0.003403687017647933      631.9277904213624
0.0036049030444305387     631.7527033562269
0.0038061191011872996     631.5605492310622
0.004007595631967136      631.3513280458678
0.00420959207329518       631.1250398006443
0.00441236586612622       630.8816844953915
0.004615139632985625      630.6006180566271
0.004817136048636202      630.3161438462513
0.005018612553936322      630.0282618642638
0.005219828585313435      629.7369721106645
0.005421044586718146      629.4422745854537
0.0056225210022172924     629.1441692886312
0.005824517268584787      628.8426562201971
0.006027290827249049      628.5377353801513
0.006217890949519272      628.2200601092316
0.006407844130704021      627.9217921352526
0.0065973647866391935     627.6429314582145
0.00678666880286996       627.3834780781173
0.006975972806121895      627.1434319949608
0.007165493423165078      626.9227932087454
0.007355446539677438      626.7215617194705
0.007546046571713631      626.5397375271367
0.00770633524869351       626.4044301243044
0.007866237248851195      626.2881868724469
0.008025880956992212      626.191007771564
0.008185395381580456      626.1128928216558
0.008344909844757132      626.0538420227223
0.008504553668569658      626.0138553747634
0.008664455861201733      625.9929328777791
0.008824744806995652      625.9910745317696
0.008985029143401957      626.0110468354699
0.009144928762683142      626.0539822685348
0.009304571537041926      626.1198808309648
0.009464085956369179      626.2087425227596
0.00962360082072762       626.3205673439193
0.009783244929102828      626.455355294444
0.009943146768167231      626.6131063743334
0.010103434204802428      626.7938205835876
0.010294032985212885      627.0047647482769
0.010483984610427306      627.2366615977179
0.01067350371534381       627.4895111319107
0.010862806406064813      627.7633133508552
0.011052109529861487      628.0580682545515
0.011241629932518437      628.3737758429995
0.011431583715703804      628.7104361161993
0.011622185507008923      629.0680490741508
0.011824959091632737      629.4179713216029
0.012026955383669057      629.7603283744724
0.012228431824642762      630.0951202327587
0.01242964785142546       630.4223468964626
0.012630863908182311      630.7420083655836
0.012832340438962243      631.0541046401219
0.01303433688029038       631.3586357200774
0.013237110673121513      631.6556016054501
0.013439884439981065      631.9163240892276
0.013641880855631786      632.1564022705169
0.013843357360932049      632.375836149318
0.014044573392309304      632.5746257256311
0.014245789393714157      632.7527709994561
0.014447265809213447      632.9102719707929
0.014649262075581083      633.0471286396415
0.01485203563424549       633.1633410060022
0.015042635756515686      633.2605810671316
0.015232588937700405      633.3403056085198
0.015422109593635547      633.4025146301661
0.015611413609866287      633.447208132071
0.015800717613118194      633.4743861142341
0.01599023823016135       633.4840485766557
0.01618019134667368       633.4761955193356
0.016370791378709844      633.450826942274
0.016531080055689654      633.4008495972112
0.01669098205584727       633.3481797617698
0.016850625763988217      633.2928174359498
0.017010140188576394      633.2347626197515
0.017169654651752998      633.1740153131746
0.017329298475565455      633.1105755162193
0.017489200668197463      633.0444432288856
0.01764948961399131       632.9756184511733
0.01780977395039525       632.8706528578172
0.017969673569674088      632.7535232485614
0.018129316344030533      632.6242296234058
0.01828883076335545       632.4827719823503
0.01844834562771156       632.3291503253951
0.01860798973608443       632.1633646525403
0.018767891575146484      631.9854149637855
0.018928179011779317      631.7953012591311
0.019118777792188433      631.5063135401268
0.019308729417401523      631.1937669932895
0.019498248522316707      630.8576616186192
0.019687551213036395      630.4979974161158
0.019876854336831753      630.1147743857794
0.02006637473948738       629.7079925276098
0.020256328522671414      629.2776518416072
0.020446930313975188      628.8237523277714
0.02064970389860279       628.2690814376627
0.02085170019064286       627.7010803600373
0.02105317663162028       627.1197490948954
0.02125439265840668       626.5250876422367
0.021455608715167235      625.9170960020615
0.02165708524595088       625.2957741743697
0.021859081687282764      624.6611221591613
0.02206185548011769       624.0131399564362
0.022264629246980954      623.3596036352877
0.022466625662635346      622.7194785907062
0.022668102167939252      622.092764822692
0.022869318199320136      621.4794623312449
0.023070534200728618      620.879571116365
0.023272010616231548      620.2930911780524
0.023474006882602858      619.7200225163068
0.02367678044127098       619.1603651311285
0.02386738056353977       618.6193425594258
0.024057333744723106      618.1150237704285
0.02424685440065687       617.6474087641363
0.024436158416886237      617.2164975405497
0.02462546242013677       616.8222900996683
0.024814983037178547      616.4647864414923
0.025004936153689494      616.1439865660215
0.025195536185724256      615.8598904732561
0.0253558248627017        615.6181373704599
0.025515726862856965      615.407549574443
0.025675370570995573      615.2281270852054
0.02583488499558142       615.0798699027473
0.02599439945875569       614.9627780270685
0.02615404328256581       614.876851458169
0.026313945475195465      614.8220901960487
0.026474234420986946      614.7984942407079
0.026634518757392422      614.8014310282384
0.02679441837667279       614.8320888024734
0.026954061151030752      614.890467563413
0.02711357557035719       614.9765673110574
0.027273090434714816      615.0903880454061
0.027432734543089202      615.2319297664595
0.027592636382152785      615.4011924742176
0.02775292381878715       615.5981761686802
0.02794352259919713       615.8466474403356
0.02813347422441108       616.13076385467
0.028322993329327112      616.4505254116837
0.028512296020047647      616.8059321113763
0.02870159914384385       617.196983953748
0.028891119546500334      617.623680938799
0.02908107332968523       618.086023066529
0.029271675120989875      618.5840103369381
0.02947444870561504       619.1279161330559
0.029676444997652693      619.6850065366806
0.02987792143862772       620.2552815478122
0.030079137465411736      620.8387411664507
0.030280353522169904      621.4353853925962
0.030481830052951155      622.0452142262485
0.030683826494280624      622.6682276674078
0.030886600287113104      623.304425716074
0.03108937405397396       623.9238565347646
0.03129137046962597       624.5354827832756
0.03149284697492751       625.1393044616069
0.03169406300630604       625.7353215697588
0.03189527900771217       626.323534107731
0.03209675542321274       626.9039420755236
0.03229875168958166       627.4765454731366
0.03250152524824737       628.0413443005701
0.03269212537051706       628.5017901937938
0.03288207855170127       628.9359244973336
0.033071599207635916      629.3437472111899
0.033260903223866156      629.7252583353622
0.033450207227117564      630.080457869851
0.033639727844160215      630.4093458146559
0.03382968096067204       630.7119221697772
0.034020280992707694      630.9881869352147
0.034180569669686675      631.1816068580941
0.03434047166984347       631.3624915359937
0.0345001153779836        631.5308409689131
0.03465962980257096       631.6866551568526
0.03481914426574675       631.8299340998119
0.034978788089558385      631.9606777977915
0.03513869028218957       632.0788862507908
0.035298979227982585      632.1845594588102
