% Model:              brazing.mph
% Version:            COMSOL 5.3.0.223
% Date:               Oct 23 2018, 13:40
% Dimension:          1
% Nodes:              225
% Expressions:        1
% Description:        Line graph
% x                       Height
0                         656.270375075387
2.3022181212578358E-4     656.1470478030901
4.5999325066962656E-4     655.9937525308158
6.894940081029028E-4      655.8104892585636
9.189044129547812E-4      655.5972579863341
0.001148405006736289      655.3540587141272
0.0013781761183620641     655.0808914419424
0.001608397441069865      654.7777561697803
0.001839314118928521      654.096659606327
0.0020697760201574002     653.4172708949168
0.002299964597801726      652.7395900355497
0.0025300619515304015     652.0636170282256
0.0027602503975112853     651.3893518729452
0.0029907120357255193     650.7167945697075
0.003221628319839081      650.0459451185133
0.0034518885683530987     649.1666025475447
0.0036816980188178403     648.2803348979676
0.003911236592567028      647.3871421697814
0.004140684848157368      646.4870243629866
0.004370223557282477      645.5799814775835
0.004600033278179856      644.6660135135711
0.004830293931548535      643.7451204709503
0.005060048526376791      642.6299062253198
0.005289355629682316      641.5283926835715
0.005518393850920054      640.4405798457055
0.005747342428834         639.3664677117216
0.00597638081262499       638.3060562816203
0.006205688240655705      637.2593455554008
0.006435443321622868      636.2263355330638
0.006665339619110656      635.1048620146347
0.006894787442849326      634.005144769815
0.007123965728649401      632.9271837986048
0.007353054043912613      631.8709791010042
0.007582232167524012      630.8365306770132
0.007811679667266285      629.8238385266314
0.008041575479707366      628.8329026498594
0.008271887219609135      627.8277083261901
0.008501747728772392      626.8588653156662
0.008731337046705121      625.9263736182874
0.008960835851156599      625.0302332340541
0.009190425033567954      624.1704441629662
0.009420285272008154      623.3470064050234
0.009650596606620833      622.5599199602262
0.009881512912836019      621.7950827135475
0.010111974573021956      621.079776588268
0.010342163040896366      620.4140015843877
0.010572260416492441      619.7977577019068
0.010802449016030204      619.2310449408253
0.011032910939230619      618.7138633011429
0.011263827639190652      618.2462127828599
0.011494048967061755      617.799825108875
0.011723820083820682      617.4272155352454
0.011953320682717213      617.1283840619709
0.012182731092678062      616.9033306890517
0.012412231855226382      616.7520554164881
0.012642003298903411      616.6745582442793
0.012872225116192546      616.670839172426
0.013102446994778118      616.5357342327228
0.013332218499393473      616.4931140846774
0.01356171932266464       616.5429787282895
0.013791129793276359      616.6853281635595
0.01402063045289555       616.9201623904873
0.014250401630592404      617.2474814090726
0.014480623019759359      617.6672852193159
0.014711539835704642      617.9350825935755
0.014942001874208778      618.2822249224104
0.015172190588640395      618.7087122058202
0.01540228807899374       619.2145444438055
0.015632476661762654      619.7997216363661
0.015862938437253588      620.4642437835016
0.01609385485945594       621.2081108852126
0.016324115336228646      621.8743636483267
0.016553925013622208      622.580393754242
0.016783463813500554      623.3262012029581
0.017012912294953733      624.1117859944752
0.01724245123020976       624.9371481287936
0.01747226117803945       625.8022876059125
0.017702522059672054      626.7072044258326
0.017932276794613372      627.6072159891764
0.018161584037218948      628.5343801041241
0.018390622397267263      629.4886967706757
0.018619571113827754      630.4701659888311
0.018848609636427344      631.4787877585907
0.019077917203754128      632.5145620799537
0.019307672424828403      633.5774889529208
0.019537568573699274      634.5379152711365
0.01976701624968263       635.515519011304
0.019996194388245302      636.5103001734233
0.020225282556443316      637.5222587574941
0.020454460532815345      638.551394763517
0.02068390788479834       639.5977081914913
0.020913803548616574      640.6611990414175
0.02114411498977932       641.5056161015115
0.021373975201947604      642.3645953217443
0.02160356422393484       643.2381367021161
0.02183306273279162       644.1262402426267
0.02206265161925901       645.0289059432768
0.02229251156070728       645.9461338040651
0.02252282259658549       646.8779238249926
0.022753738766914562      647.475698466001
0.022984200292012823      648.0766703580354
0.023214388625279938      648.6808395010958
0.023444485866429166      649.2882058951823
0.023674674331359946      649.8987695402953
0.023905136119473275      650.5125304364342
0.024136052683548088      651.1294885835993
0.024366274021741702      651.341243172823
0.024596045148762867      651.5544865891795
0.024825545757885373      651.7692188326688
0.02505495617806012       651.9854399032909
0.02528445695083446       652.2031498010459
0.025514228404773787      652.4223485259334
0.025744450232385536      652.6430360779539
0.025974672267095825      652.5180557615676
0.026204443926923768      652.3695452394993
0.02643394490485871       652.1975045117492
0.02666335552995085       652.0019335783171
0.026892856344233315      651.7828324392034
0.02712262767714175       651.5402010944074
0.02735284922243193       651.2740395439297
0.027583766528201624      650.627129586357
0.027814229053652367      649.9701667010098
0.028044418253299775      649.3031508878884
0.02827451622829193       648.6260821469924
0.028504705296278778      647.9389604783223
0.028735167558720572      647.2417858818774
0.028966084470753738      646.5345583576583
0.029196345605491433      645.673476410601
0.02942615593701711       644.7828262763973
0.02965569538872289       643.862607955047
0.029885144521236064      642.9128214465504
0.030114684108324883      641.9334667509074
0.030344494710297387      640.9245438681179
0.030574756249911007      639.8860527981819
0.030804511377321087      638.7500199848835
0.031033819010118435      637.6070011201206
0.031262857758987544      636.4569962038933
0.03149180686390927       635.3000052362015
0.031720845775323685      634.1360282170458
0.031950153732830305      632.9650651464253
0.032179909346355486      631.7871160243407
0.0324098051544111        630.6157891577518
0.032639252491552244      629.4538626379912
0.03286843029245836       628.3013364650586
0.0330975181233935        627.1582106389543
0.03332669576210278       626.0244851596784
0.03355614277523119       624.9001600272303
0.033786038098215655      623.7852352416106
0.034016348759356954      622.7156895911219
0.03424620819605658       621.6816081380449
0.034475796445315066      620.6829908823795
0.03470529418235937       619.7198378241258
0.03493488229610333       618.792148963284
0.035164741462093585      617.8999242998536
0.03539505171796626       617.0431638338351
0.035625967353597694      616.2459387149481
0.03585642834714083       615.5051093042896
0.036086616150743635      614.8206756018595
0.03631671286286018       614.1926376076578
0.03654690079812825       613.620995321685
0.036777362054689705      613.1057487439402
0.03700827808407173       612.6468978744242
0.03723849938140827       612.2397872334271
0.03746827046781093       611.9129784572374
0.03769777103645843       611.6664715458548
0.03792718141620601       611.5002664992796
0.0381566821485052        611.4143633175119
0.03838645356182577       611.4087620005511
0.03861667534858004       611.4834625483978
0.038846895274787324      611.476495870901
0.039076664838430766      611.567223598663
0.03930616372759302       611.7556457316837
0.03953557226638858       612.0417622699631
0.039765070991905134      612.4255732135016
0.039994840228642616      612.9070785622987
0.040225059665450036      613.4862783163546
0.04045597761776665       613.9681821294488
0.04068644078597457       614.5306377333906
0.04091663062609736       615.1736451281798
0.041146729240799984      615.8972043138167
0.04137691894925231       616.7013152903016
0.04160738185443156       617.5859780576338
0.04183829941298208       618.5511926158139
0.04206856149768976       619.4708422173402
0.04229837277362926       620.4276869968589
0.04252791316640542       621.4217269543699
0.04275736323887129       622.452962089873
0.04298690376702529       623.5213924033686
0.04321671531340127       624.6270178948562
0.04344697780296935       625.7698385643363
0.043676731016186174      626.9635105090272
0.04390603674591497       628.1672803659023
0.04413507359840861       629.3811481349614
0.04436402080919017       630.6051138162047
0.044593057824233256      631.8391774096324
0.04482236387867965       633.0833389152438
0.045052117578024006      634.3375983330395
0.045282012653644836      635.5905672221951
0.045511459262636354      636.8296174757534
0.04574063633797325       638.0547490937142
0.04596972344420469       639.2659620760779
0.046198900357357554      640.4632564228446
0.046428346642361965      641.6466321340135
0.04665824123294997       642.8160892095856
0.04688855484177433       643.892905721889
0.04711841720894409       644.9493402220811
0.04734800837831597       645.9853927101617
0.04757750903201372       647.0010631861311
0.047807100065861544      647.9963516499894
0.04803696216230292       648.9712581017359
0.04826727536583021       649.9257825413714
0.048498193048686675      650.66577540061
0.048728656077441146      651.3826775407135
0.04895884590902903       652.0764889616814
0.04918894464672031       652.7472096635145
0.04941913460997818       653.3948396462126
0.04964959790176041       654.0193789097751
0.04988051597838159       654.6208274542028
0.05011073543954296       654.8889111706025
0.0503405047004922        655.1461835349254
0.05057000345013497       655.3926445471714
0.05079941201302823       655.6282942073406
0.05102891092631677       655.853132515433
0.05125868051417213       656.0671594714483
0.051488900464733596      656.270375075387
