% Model:              brazing.mph
% Version:            COMSOL 5.3.0.223
% Date:               Oct 23 2018, 12:28
% Dimension:          1
% Nodes:              145
% Expressions:        1
% Description:        Line graph
% x                       Height
0                         656.1050498750993
1.8037553861809572E-4     656.3265227813968
3.5951128344368776E-4     656.500963169788
5.377561773732229E-4      656.6283710402734
7.154644111300318E-4      656.7087463928527
8.929933875627798E-4      656.7420892275261
0.0010707015910786408     656.7283995442934
0.0012489464247083767     656.667677343155
0.0014280820795340731     656.5599226241101
0.0016084574989771061     656.4051353871596
0.0017793134314883058     656.3342695856632
0.0019491114898538484     656.2413524406744
0.002118149876008701      656.1263839521937
0.0022867308232763497     655.9893641202207
0.002455159027530182      655.8302929447555
0.0026237400128558564     655.6491704257983
0.0027927784749207734     655.4459965633487
0.0029625766466419693     655.2207713574069
0.0031334327293582195     654.973494807973
0.0033042867504275058     654.7896479868684
0.0034740828875811486     654.6030016964446
0.0036431193341009516     654.413555936702
0.0038116983146850476     654.2213107076402
0.003980124516686077      654.0262660092594
0.004148703455848711      653.8284218415596
0.004317739819749776      653.6277782045406
0.004487535833529769      653.4243350982026
0.004658389691119368      653.2180925225457
0.0048387629974717405     653.0865371367261
0.005017896580971026      652.9642465366547
0.005196139373513023      652.8512207223322
0.0053738455543625        652.7474596937581
0.005551372514551955      652.6529634509326
0.005729078726427549      652.5677319938555
0.005907321580834967      652.4917653225269
0.006086455256670912      652.4250634369467
0.006266828685292636      652.3676263371153
0.0064472042239161545     652.4910517107294
0.0066263399687470585     652.6258467401852
0.00680458486268183       652.7720114254834
0.0069822930964438265     652.9295457666236
0.007159822072881748      653.0984497636057
0.007337530276402798      653.2787234164299
0.007515775110037768      653.470366725096
0.007694910764868775      653.6733796896041
0.007875286184317232      653.8877623099545
0.008046142116827224      654.1498215892401
0.008215940175191578      654.4063149836329
0.008384978561345261      654.657242493133
0.008553559508611747      654.9026041177405
0.008721987712864422      655.1423998574552
0.008890568698188937      655.3766297122773
0.00905960716025268       655.6052936822065
0.009229405331972688      655.8283917672431
0.009400261414687729      656.045923967387
0.009571115435747398      656.348238957328
0.009740911572891598      656.6239223129846
0.009909948019402086      656.8729740343568
0.010078526999976944      657.0953941214449
0.010246953201968763      657.2911825742485
0.010415532141122159      657.4603393927679
0.010584568505013912      657.602864577003
0.010754364518784467      657.7187581269534
0.010925218376364454      657.8080200426197
0.011105591682722255      657.9620496933217
0.01128472526622686       658.0737041177646
0.011462968058774099      658.1429833159492
0.011640674239628768      658.169887287875
0.011818201199823401      658.154416033542
0.01199590741170419       658.0965695529505
0.012174150266116847      657.9963478461001
0.012353283941958112      657.8537509129911
0.012533657370585264      657.6687787536234
0.01271403176453574       657.6027030946283
0.012893166387683227      657.488221565344
0.013071410176518557      657.3253341657708
0.013249117315197753      657.1140408959085
0.013426645199902413      656.8543417557571
0.013604352308338922      656.5462367453168
0.01378259603687098       656.1897258645874
0.013961730570013379      655.7848091135688
0.014142104844781908      655.3314864922614
0.014312959944399205      654.9344831867264
0.014482757184992078      654.5158382438474
0.014651794764271453      654.0755516636249
0.014820374911240972      653.6136234460585
0.014988802317395246      653.1300535911482
0.01515738250242126       652.6248420988944
0.015326420157607648      652.0979889692966
0.015496217511551624      651.5494942023552
0.015667072761367945      650.9793577980698
0.01583792791479403       650.4623651400639
0.016007725163749622      649.9551403348288
0.01617676270725794       649.4576833823652
0.01634534277588875       648.9699942826727
0.016513770062946447      648.4920730357513
0.01668235009015449       648.0239196416012
0.016851387551041475      647.5655341002222
0.017021184676619543      647.1169164116142
0.017192039666560827      646.6780665757775
0.017372413817338207      646.2991330778488
0.017551548228302124      645.9499927549074
0.017729791836073705      645.6306456069535
0.017907498824762332      645.3410916339876
0.018085026590318725      645.081330836009
0.018262733610032132      644.851363213018
0.018440977279666457      644.6511887650145
0.018620111782963036      644.4808074919986
0.018800486056004474      644.3402193939704
0.018980860449944497      644.4013987093892
0.019159995073081745      644.4967410240059
0.019338238861906984      644.626246337821
0.01951594600057618       644.7899146508341
0.019693473885270874      644.9877459630452
0.019871180993697383      645.2197402744544
0.020049424722219357      645.4858975850616
0.02022855925535152       645.7862178948669
0.0204089335301096        646.1207012038702
0.02057978862980686       646.5045987629354
0.020749585870478253      646.8950132941176
0.020918623449835097      647.2919447974173
0.021087203596881453      647.695393272834
0.021255631003112355      648.105358720368
0.021424211188215206      648.5218411400191
0.021593248843479067      648.9448405317873
0.021763046197501558      649.3743568956728
0.02193390144739785       649.8103902316756
0.022104756600747556      650.3522904840902
0.02227455384962815       650.8719132064376
0.02244359139306247       651.3692583987184
0.022612171461619885      651.8443260609323
0.022780598748604386      652.2971161930792
0.022949178775739036      652.7276287951593
0.02311821623655202       653.1358638671722
0.023288013362055097      653.5218214091184
0.023458868351919994      653.8855014209976
0.02363924250270423       654.3018238838342
0.023818376913674867      654.6757198546867
0.023996620521453065      655.0071893335552
0.02417432751014825       655.2962323204395
0.02435185527571118       655.5428488153397
0.024529562295431146      655.7470388182558
0.02470780596507209       655.9088023291878
0.024886940468375387      656.0281393481356
0.025067314741423676      656.1050498750993
