% Model:              brazing.mph
% Version:            COMSOL 5.3.0.223
% Date:               Oct 23 2018, 13:14
% Dimension:          1
% Nodes:              225
% Expressions:        1
% Description:        Line graph
% x                       Height
0                         659.1109402799239
2.3022181212578358E-4     658.9579245666946
4.5999325066962656E-4     658.7810186668148
6.894940081029028E-4      658.5802225802847
9.189044129547812E-4      658.3555363071044
0.001148405006736289      658.1069598472739
0.0013781761183620641     657.8344932007927
0.001608397441069865      657.5381363676614
0.001839314118928521      656.8222203689381
0.0020697760201574002     656.1124483995617
0.002299964597801726      655.4088204595319
0.0025300619515304015     654.7113365488489
0.0027602503975112853     654.0199966675129
0.0029907120357255193     653.3348008155234
0.003221628319839081      652.655748992881
0.0034518885683530987     651.7534351469199
0.0036816980188178403     650.8407605767231
0.003911236592567028      649.9177252822903
0.004140684848157368      648.9843292636216
0.004370223557282477      648.0405725207174
0.004600033278179856      647.086455053577
0.004830293931548535      646.1219768622008
0.005060048526376791      644.9789072486685
0.005289355629682316      643.8472207925446
0.005518393850920054      642.7269174938286
0.005747342428834         641.6179973525209
0.00597638081262499       640.5204603686216
0.006205688240655705      639.4343065421301
0.006435443321622868      638.3595358730471
0.006665339619110656      637.2107328469257
0.006894787442849326      636.0814307043714
0.007123965728649401      634.9716294453842
0.007353054043912613      633.881329069964
0.007582232167524012      632.8105295781112
0.007811679667266285      631.7592309698252
0.008041575479707366      630.7274332451065
0.008271887219609135      629.6950590564537
0.008501747728772392      628.6984151821092
0.008731337046705121      627.7375016220733
0.008960835851156599      626.8123183763456
0.009190425033567954      625.9228654449267
0.009420285272008154      625.069142827816
0.009650596606620833      624.2511505250138
0.009881512912836019      623.4658120114177
0.010111974573021956      622.7305912342624
0.010342163040896366      622.045488193548
0.010572260416492441      621.4105028892742
0.010802449016030204      620.8256353214418
0.011032910939230619      620.2908854900498
0.011263827639190652      619.8062533950989
0.011494048967061755      619.3466137838602
0.011723820083820682      618.9657240257576
0.011953320682717213      618.6635841207909
0.012182731092678062      618.4401940689601
0.012412231855226382      618.2955538702655
0.012642003298903411      618.2296635247064
0.012872225116192546      618.2425230322837
0.013102446994778118      618.0874428624514
0.013332218499393473      618.0347919008229
0.01356171932266464       618.0845701473983
0.013791129793276359      618.2367776021773
0.01402063045289555       618.4914142651605
0.014250401630592404      618.8484801363471
0.014480623019759359      619.3079752157377
0.014711539835704642      619.5758653418455
0.014942001874208778      619.9309126418545
0.015172190588640395      620.3731171157648
0.01540228807899374       620.9024787635761
0.015632476661762654      621.5189975852888
0.015862938437253588      622.2226735809024
0.01609385485945594       623.0135067504174
0.016324115336228646      623.7095611193515
0.016553925013622208      624.4456132881679
0.016783463813500554      625.2216632568661
0.017012912294953733      626.0377110254467
0.01724245123020976       626.8937565939095
0.01747226117803945       627.7897999622543
0.017702522059672054      628.7258411304813
0.017932276794613372      629.6703767798771
0.018161584037218948      630.6403073586995
0.018390622397267263      631.6356328669482
0.018619571113827754      632.6563533046234
0.018848609636427344      633.7024686717255
0.019077917203754128      634.7739789682536
0.019307672424828403      635.8708841942083
0.019537568573699274      636.8801400620441
0.01976701624968263       637.9032595069054
0.019996194388245302      638.940242528792
0.020225282556443316      639.9910891277041
0.020454460532815345      641.055799303642
0.02068390788479834       642.1343730566049
0.020913803548616574      643.2268103865936
0.02114411498977932       644.1130948783839
0.021373975201947604      645.0107060268443
0.02160356422393484       645.9196438319751
0.02183306273279162       646.8399082937761
0.02206265161925901       647.7714994122479
0.02229251156070728       648.7144171873894
0.02252282259658549       649.6686616192014
0.022753738766914562      650.2979685940211
0.022984200292012823      650.9271225382456
0.023214388625279938      651.5561234518749
0.023444485866429166      652.1849713349092
0.023674674331359946      652.8136661873486
0.023905136119473275      653.4422080091925
0.024136052683548088      654.0705968004416
0.024366274021741702      654.2960781236854
0.024596045148762867      654.5237592563136
0.024825545757885373      654.753640198326
0.02505495617806012       654.9857209497227
0.02528445695083446       655.2200015105041
0.025514228404773787      655.4564818806696
0.025744450232385536      655.6951620602196
0.025974672267095825      655.5460395332901
0.026204443926923768      655.3793912892152
0.02643394490485871       655.1952173279943
0.02666335552995085       654.9935176496281
0.026892856344233315      654.7742922541164
0.02712262767714175       654.5375411414589
0.02735284922243193       654.2832643116559
0.027583766528201624      653.6021373511444
0.027814229053652367      652.9155176191787
0.028044418253299775      652.2234051157584
0.02827451622829193       651.5257998408841
0.028504705296278778      650.8227017945558
0.028735167558720572      650.1141109767727
0.028966084470753738      649.4000273875357
0.029196345605491433      648.5084041710554
0.02942615593701711       647.5847010387157
0.02965569538872289       646.6289179905166
0.029885144521236064      645.6410550264578
0.030114684108324883      644.6211121465401
0.030344494710297387      643.5690893507624
0.030574756249911007      642.4849866391254
0.030804511377321087      641.3145699820708
0.031033819010118435      640.1342190317806
0.031262857758987544      638.9439337882544
0.03149180686390927       637.7437142514925
0.031720845775323685      636.5335604214953
0.031950153732830305      635.3134722982619
0.032179909346355486      634.083449881793
0.0324098051544111        632.8743333962464
0.032639252491552244      631.6721736149144
0.03286843029245836       630.4769705377968
0.0330975181233935        629.2887241648938
0.03332669576210278       628.1074344962055
0.03355614277523119       626.9331015317315
0.033786038098215655      625.7657252714722
0.034016348759356954      624.6570666902182
0.03424620819605658       623.5833798378667
0.034475796445315066      622.5446647144173
0.03470529418235937       621.5409213198702
0.03493488229610333       620.5721496542259
0.035164741462093585      619.6383497174834
0.03539505171796626       618.7395215096434
0.035625967353597694      617.910349576286
0.03585642834714083       617.1385395617552
0.036086616150743635      616.4240914660511
0.03631671286286018       615.7670052891737
0.03654690079812825       615.1672810311233
0.036777362054689705      614.6249186918991
0.03700827808407173       614.1399182715019
0.03723849938140827       613.7106063277347
0.03746827046781093       613.3668200188702
0.03769777103645843       613.1085593449084
0.03792718141620601       612.9358243058491
0.0381566821485052        612.8486149016927
0.03838645356182577       612.8469311324386
0.03861667534858004       612.9307729980875
0.038846895274787324      612.8998933964783
0.039076664838430766      612.9765012455497
0.03930616372759302       613.1605965453015
0.03953557226638858       613.4521792957337
0.039765070991905134      613.8512494968468
0.039994840228642616      614.3578071486398
0.040225059665450036      614.9718522511138
0.04045597761776665       615.4522345715911
0.04068644078597457       616.0210752647437
0.04091663062609736       616.6783743305717
0.041146729240799984      617.4241317690751
0.04137691894925231       618.2583475802539
0.04160738185443156       619.1810217641078
0.04183829941298208       620.1921543206372
0.04206856149768976       621.142740326213
0.04229837277362926       622.1308813543177
0.04252791316640542       623.156577404951
0.04275736323887129       624.2198284781133
0.04298690376702529       625.3206345738048
0.04321671531340127       626.4589956920247
0.04344697780296935       627.6349118327738
0.043676731016186174      628.8743949377209
0.04390603674591497       630.1223293134908
0.04413507359840861       631.3787149600834
0.04436402080919017       632.6435518774987
0.044593057824233256      633.9168400657371
0.04482236387867965       635.1985795247979
0.045052117578024006      636.4887702546816
0.045282012653644836      637.7918407720034
0.045511459262636354      639.077603102402
0.04574063633797325       640.3460572458772
0.04596972344420469       641.5972032024293
0.046198900357357554      642.8310409720586
0.046428346642361965      644.0475705547642
0.04665824123294997       645.2467919505469
0.04688855484177433       646.3652840821682
0.04711841720894409       647.4598091103361
0.04734800837831597       648.5303670350503
0.04757750903201372       649.576957856311
0.047807100065861544      650.5995815741187
0.04803696216230292       651.5982381884726
0.04826727536583021       652.5729276993732
0.048498193048686675      653.3414604812027
0.048728656077441146      654.0832011746201
0.04895884590902903       654.7981497796252
0.04918894464672031       655.486306296218
0.04941913460997818       656.147670724399
0.04964959790176041       656.7822430641671
0.04988051597838159       657.3900233155234
0.05011073543954296       657.6666734600526
0.0503405047004922        657.9330553166151
0.05057000345013497       658.1891688852104
0.05079941201302823       658.435014165839
0.05102891092631677       658.670591158501
0.05125868051417213       658.8958998631957
0.051488900464733596      659.1109402799239
