% Model:              brazing.mph
% Version:            COMSOL 5.3.0.223
% Date:               Oct 23 2018, 13:17
% Dimension:          1
% Nodes:              193
% Expressions:        1
% Description:        Line graph
% x                       Height
0                         595.8168493293418
1.6028433640637486E-4     595.8935425403494
3.201839556876346E-4      595.9631575463151
4.7982673004648776E-4     596.0256943472386
6.393411493738095E-4      596.0811529431202
7.988560137323205E-4      596.1295333339597
9.58500122107595E-4       596.1708355197572
0.0011184019611720658     596.2050595005128
0.0012786893978073315     596.2322052762263
0.0014692881782178572     596.2517847190509
0.0016592398034323465     596.2540188094764
0.0018487589083489172     596.2389075475028
0.00203806159906999       596.2064509331301
0.0022273647228667317     596.1566489663583
0.0024168851255237504     596.0895016471874
0.002606838908709185      596.0050089756173
0.0027974407000143733     595.9031709516482
0.003000214284638094      595.7772085569721
0.0032022105766743216     595.6354751408211
0.003403687017647933      595.4779707031951
0.0036049030444305387     595.3046952440941
0.0038061191011872996     595.1156487635183
0.004007595631967136      594.9108312614675
0.00420959207329518       594.6902427379417
0.00441236586612622       594.4538831929411
0.004615139632985625      594.1852516981655
0.004817136048636202      593.9133695219072
0.005018612553936322      593.6382366641665
0.005219828585313435      593.3598531249431
0.005421044586718146      593.0782189042374
0.0056225210022172924     592.7933340020489
0.005824517268584787      592.505198418378
0.006027290827249049      592.2138121532245
0.006217890949519272      591.9124941792609
0.006407844130704021      591.6299047100866
0.0065973647866391935     591.3660437457021
0.00678666880286996       591.1209112861071
0.006975972806121895      590.8945073313016
0.007165493423165078      590.6868318812857
0.007355446539677438      590.4978849360594
0.007546046571713631      590.3276664956226
0.00770633524869351       590.200785292785
0.007866237248851195      590.0919463928867
0.008025880956992212      590.0011497959279
0.008185395381580456      589.9283955019084
0.008344909844757132      589.8736835108284
0.008504553668569658      589.8370138226878
0.008664455861201733      589.8183864374867
0.008824744806995652      589.8178013552249
0.008985029143401957      589.8378038496338
0.009144928762683142      589.8798613603833
0.009304571537041926      589.9439738874732
0.009464085956369179      590.0301414309037
0.00962360082072762       590.1383639906745
0.009783244929102828      590.268641566786
0.009943146768167231      590.4209741592379
0.010103434204802428      590.5953617680302
0.010294032985212885      590.7963508499665
0.010483984610427306      591.0175099366289
0.01067350371534381       591.258839028018
0.010862806406064813      591.5203381241332
0.011052109529861487      591.8020072249748
0.011241629932518437      592.1038463305428
0.011431583715703804      592.4258554408372
0.011622185507008923      592.7680345558578
0.011824959091632737      593.1079084591613
0.012026955383669057      593.440406840699
0.012228431824642762      593.7655297004708
0.01242964785142546       594.0832770384766
0.012630863908182311      594.3936488547165
0.012832340438962243      594.6966451491904
0.01303433688029038       594.9922659218985
0.013237110673121513      595.2805111728405
0.013439884439981065      595.540811660084
0.013641880855631786      595.7812184409659
0.013843357360932049      596.0017315154862
0.014044573392309304      596.2023508836448
0.014245789393714157      596.3830765454419
0.014447265809213447      596.5439085008775
0.014649262075581083      596.6848467499515
0.01485203563424549       596.8058912926639
0.015042635756515686      596.909180287628
0.015232588937700405      596.9951174211369
0.015422109593635547      597.0637026931909
0.015611413609866287      597.1149361037895
0.015800717613118194      597.1488176529332
0.01599023823016135       597.1653473406216
0.01618019134667368       597.1645251668548
0.016370791378709844      597.146351131633
0.016531080055689654      597.1042834097514
0.01669098205584727       597.0589206124744
0.016850625763988217      597.0102627398019
0.017010140188576394      596.9583097917341
0.017169654651752998      596.903061768271
0.017329298475565455      596.8445186694124
0.017489200668197463      596.7826804951585
0.01764948961399131       596.7175472455092
0.01780977395039525       596.6185465052741
0.017969673569674088      596.5075397130889
0.018129316344030533      596.3845268689535
0.01828883076335545       596.249507972868
0.01844834562771156       596.1024830248322
0.01860798973608443       595.9434520248462
0.018767891575146484      595.77241497291
0.018928179011779317      595.5893718690237
0.019118777792188433      595.3094614367977
0.019308729417401523      595.0065652840814
0.019498248522316707      594.6806834108743
0.019687551213036395      594.3318158171767
0.019876854336831753      593.9599625029884
0.02006637473948738       593.5651234683097
0.020256328522671414      593.1472987131403
0.020446930313975188      592.7064882374805
0.02064970389860279       592.1798031713204
0.02085170019064286       591.6401251994781
0.02105317663162028       591.0874543219535
0.02125439265840668       590.5217905387466
0.021455608715167235      589.9431338498574
0.02165708524595088       589.3514842552859
0.021859081687282764      588.7468417550322
0.02206185548011769       588.1292063490961
0.022264629246980954      587.5131213577481
0.022466625662635346      586.9092208363311
0.022668102167939252      586.3175047848455
0.022869318199320136      585.737973203291
0.023070534200728618      585.1706260916676
0.023272010616231548      584.6154634499754
0.023474006882602858      584.0724852782146
0.02367678044127098       583.5416915763848
0.02386738056353977       583.0310103308203
0.024057333744723106      582.5549665405318
0.02424685440065687       582.1135602055193
0.024436158416886237      581.7067913257825
0.02462546242013677       581.3346599013217
0.024814983037178547      580.9971659321368
0.025004936153689494      580.6943094182278
0.025195536185724256      580.4260903595947
0.0253558248627017        580.1961021432552
0.025515726862856965      579.9956622974516
0.025675370570995573      579.8247708221838
0.02583488499558142       579.683427717452
0.02599439945875569       579.571632983256
0.02615404328256581       579.489386619596
0.026313945475195465      579.4366886264718
0.026474234420986946      579.4135390038834
0.026634518757392422      579.4151961943585
0.02679441837667279       579.442995937201
0.026954061151030752      579.4969382324107
0.02711357557035719       579.5770230799877
0.027273090434714816      579.6832504799321
0.027432734543089202      579.8156204322438
0.027592636382152785      579.9741329369227
0.02775292381878715       580.1587879939691
0.02794352259919713       580.3901809169977
0.02813347422441108       580.6552330635158
0.028322993329327112      580.9539444335229
0.028512296020047647      581.2863150270194
0.02870159914384385       581.6523448440053
0.028891119546500334      582.0520338844805
0.02908107332968523       582.4853821484451
0.029271675120989875      582.9523896358988
0.02947444870561504       583.4657123692518
0.029676444997652693      583.990799173014
0.02987792143862772       584.5276500471855
0.030079137465411736      585.0762649917663
0.030280353522169904      585.6366440067562
0.030481830052951155      586.2087870921555
0.030683826494280624      586.7926942479642
0.030886600287113104      587.3883654741819
0.03108937405397396       587.9711000746636
0.03129137046962597       588.5468031024438
0.03149284697492751       589.1154745575227
0.03169406300630604       589.6771144399003
0.03189527900771217       590.2317227495764
0.03209675542321274       590.7792994865512
0.03229875168958166       591.3198446508245
0.03250152524824737       591.8533582423966
0.03269212537051706       592.2925350651378
0.03288207855170127       592.706628706714
0.033071599207635916      593.0956391671253
0.033260903223866156      593.4595664463716
0.033450207227117564      593.7984105444528
0.033639727844160215      594.1121714613691
0.03382968096067204       594.4008491971205
0.034020280992707694      594.6644437517068
0.034180569669686675      594.8516685977411
0.03434047166984347       595.0265579726812
0.0345001153779836        595.189111876527
0.03465962980257096       595.3393303092785
0.03481914426574675       595.4772132709356
0.034978788089558385      595.6027607614986
0.03513869028218957       595.7159727809674
0.035298979227982585      595.8168493293418
