% Model:              brazing.mph
% Version:            COMSOL 5.3.0.223
% Date:               Oct 23 2018, 12:28
% Dimension:          1
% Nodes:              193
% Expressions:        1
% Description:        Line graph
% x                       Height
0                         630.2318287195483
1.6028433640637486E-4     630.30701658397
3.201839556876346E-4      630.3756803306953
4.7982673004648776E-4     630.4378199597238
6.393411493738095E-4      630.4934354710557
7.988560137323205E-4      630.5425268646909
9.58500122107595E-4       630.5850941406294
0.0011184019611720658     630.6211372988714
0.0012786893978073315     630.6506563394166
0.0014692881782178572     630.6732779579423
0.0016592398034323465     630.6790187955381
0.0018487589083489172     630.6678788522038
0.00203806159906999       630.6398581279395
0.0022273647228667317     630.5949566227454
0.0024168851255237504     630.5331743366211
0.002606838908709185      630.454511269567
0.0027974407000143733     630.3589674215829
0.003000214284638094      630.2334982653372
0.0032022105766743216     630.0916698704925
0.003403687017647933      629.9334822370488
0.0036049030444305387     629.7589353650062
0.0038061191011872996     629.5680292543645
0.004007595631967136      629.3607639051239
0.00420959207329518       629.1371393172843
0.00441236586612622       628.8971554908456
0.004615139632985625      628.6207387682568
0.004817136048636202      628.3408563650603
0.005018612553936322      628.0575082812563
0.005219828585313435      627.7706945168446
0.005421044586718146      627.4804150718253
0.0056225210022172924     627.1866699461984
0.005824517268584787      626.889459139964
0.006027290827249049      626.5887826531219
0.006217890949519272      626.273212154595
0.006407844130704021      625.9771586228323
0.0065973647866391935     625.7006220578346
0.00678666880286996       625.4436024596012
0.006975972806121895      625.2060998281323
0.007165493423165078      624.9881141634281
0.007355446539677438      624.7896454654884
0.007546046571713631      624.6106937343134
0.00770633524869351       624.4778592867427
0.007866237248851195      624.3638823983939
0.008025880956992212      624.268763069267
0.008185395381580456      624.192501299362
0.008344909844757132      624.1350970886788
0.008504553668569658      624.0965504372174
0.008664455861201733      624.076861344978
0.008824744806995652      624.0760298119604
0.008985029143401957      624.0964985709448
0.009144928762683142      624.1400555415669
0.009304571537041926      624.2067007238267
0.009464085956369179      624.2964341177242
0.00962360082072762       624.4092557232593
0.009783244929102828      624.5451655404322
0.009943146768167231      624.7041635692428
0.010103434204802428      624.8862498096911
0.010294032985212885      625.0975062785338
0.010483984610427306      625.3298130200192
0.01067350371534381       625.5831700341472
0.010862806406064813      625.8575773209177
0.011052109529861487      626.1530348803309
0.011241629932518437      626.4695427123866
0.011431583715703804      626.807100817085
0.011622185507008923      627.165709194426
0.011824959091632737      627.5157655038837
0.012026955383669057      627.8580067044561
0.012228431824642762      628.1924327961432
0.01242964785142546       628.5190437789447
0.012630863908182311      628.8378396528609
0.012832340438962243      629.1488204178919
0.01303433688029038       629.4519860740374
0.013237110673121513      629.7473366212977
0.013439884439981065      630.0087695875555
0.013641880855631786      630.249662951635
0.013843357360932049      630.4700167135358
0.014044573392309304      630.669830873258
0.014245789393714157      630.8491054308016
0.014447265809213447      631.0078403861665
0.014649262075581083      631.146035739353
0.01485203563424549       631.2636914903609
0.015042635756515686      631.3612064439131
0.015232588937700405      631.4417459337677
0.015422109593635547      631.5053099599248
0.015611413609866287      631.5518985223845
0.015800717613118194      631.5815116211465
0.01599023823016135       631.594149256211
0.01618019134667368       631.5898114275782
0.016370791378709844      631.5684981352476
0.016531080055689654      631.5221062564475
0.01669098205584727       631.4732374314822
0.016850625763988217      631.4218916603517
0.017010140188576394      631.3680689430562
0.017169654651752998      631.3117692795955
0.017329298475565455      631.2529926699697
0.017489200668197463      631.1917391141787
0.01764948961399131       631.1280086122227
0.01780977395039525       631.0291284494433
0.017969673569674088      630.918334662904
0.018129316344030533      630.7956272526053
0.01828883076335545       630.6610062185467
0.01844834562771156       630.5144715607285
0.01860798973608443       630.3560232791505
0.018767891575146484      630.1856613738128
0.018928179011779317      630.0033858447154
0.019118777792188433      629.7228034467861
0.019308729417401523      629.4188844585973
0.019498248522316707      629.0916288801491
0.019687551213036395      628.7410367114414
0.019876854336831753      628.3671079524744
0.02006637473948738       627.9698426032478
0.020256328522671414      627.5492406637619
0.020446930313975188      627.1053021340165
0.02064970389860279       626.5613836000302
0.02085170019064286       626.0037784895171
0.02105317663162028       625.432486802477
0.02125439265840668       624.84750853891
0.021455608715167235      624.248843698816
0.02165708524595088       623.6364922821951
0.021859081687282764      623.0104542890473
0.02206185548011769       622.3707297193725
0.022264629246980954      621.7277782650673
0.022466625662635346      621.0976725837238
0.022668102167939252      620.4804126753426
0.022869318199320136      619.8759985399232
0.023070534200728618      619.284430177466
0.023272010616231548      618.7057075879707
0.023474006882602858      618.1398307714373
0.02367678044127098       617.586799727866
0.02386738056353977       617.0508698472157
0.024057333744723106      616.5512816056209
0.02424685440065687       616.088035003082
0.024436158416886237      615.6611300395987
0.02462546242013677       615.270566715171
0.024814983037178547      614.9163450297991
0.025004936153689494      614.5984649834828
0.025195536185724256      614.3169265762222
0.0253558248627017        614.0762905064661
0.025515726862856965      613.866534809902
0.025675370570995573      613.68765948653
0.02583488499558142       613.53966453635
0.02599439945875569       613.422549959362
0.02615404328256581       613.3363157555659
0.026313945475195465      613.280961924962
0.026474234420986946      613.25648846755
0.026634518757392422      613.2581355990985
0.02679441837667279       613.2870959438002
0.026954061151030752      613.3433695016552
0.02711357557035719       613.4269562726632
0.027273090434714816      613.5378562568245
0.027432734543089202      613.676069454139
0.027592636382152785      613.8415958646066
0.02775292381878715       614.0344354882275
0.02794352259919713       614.2768612475124
0.02813347422441108       614.5544434455119
0.028322993329327112      614.867182082226
0.028512296020047647      615.2150771576547
0.02870159914384385       615.5981286717979
0.028891119546500334      616.0163366246558
0.02908107332968523       616.4697010162281
0.029271675120989875      616.9582218465151
0.02947444870561504       617.4926696004454
0.029676444997652693      618.0396227594566
0.02987792143862772       618.5990813235486
0.030079137465411736      619.1710452927213
0.030280353522169904      619.7555146669747
0.030481830052951155      620.3524894463089
0.030683826494280624      620.9619696307238
0.030886600287113104      621.5839552202195
0.03108937405397396       622.190807252116
0.03129137046962597       622.7903535135822
0.03149284697492751       623.3825940046181
0.03169406300630604       623.9675287252239
0.03189527900771217       624.5451576753995
0.03209675542321274       625.1154808551448
0.03229875168958166       625.6784982644599
0.03250152524824737       626.2342099033449
0.03269212537051706       626.6811472585798
0.03288207855170127       627.1023715259242
0.033071599207635916      627.497882705378
0.033260903223866156      627.8676807969412
0.033450207227117564      628.2117658006138
0.033639727844160215      628.5301377163956
0.03382968096067204       628.8227965442871
0.034020280992707694      629.0897422842879
0.034180569669686675      629.27557319489
0.03434047166984347       629.4490983608649
0.0345001153779836        629.6103177822129
0.03465962980257096       629.759231458934
0.03481914426574675       629.8958393910281
0.034978788089558385      630.0201415784951
0.03513869028218957       630.1321380213352
0.035298979227982585      630.2318287195483
