% Model:              brazing.mph
% Version:            COMSOL 5.3.0.223
% Date:               Oct 23 2018, 13:16
% Dimension:          1
% Nodes:              225
% Expressions:        1
% Description:        Line graph
% x                       Height
0                         650.3763083329592
2.3022181212578358E-4     650.2558886977855
4.5999325066962656E-4     650.105751086318
6.894940081029028E-4      649.9258954985568
9.189044129547812E-4      649.7163219345015
0.001148405006736289      649.4770303941528
0.0013781761183620641     649.20802087751
0.001608397441069865      648.9092933845734
0.001839314118928521      648.2358058440785
0.0020697760201574002     647.5642492741204
0.002299964597801726      646.894623674699
0.0025300619515304015     646.2269290458148
0.0027602503975112853     645.5611653874677
0.0029907120357255193     644.8973326996572
0.003221628319839081      644.2354309823838
0.0034518885683530987     643.3663679845896
0.0036816980188178403     642.4910153341275
0.003911236592567028      641.6093730309975
0.004140684848157368      640.7214410752
0.004370223557282477      639.827219466735
0.004600033278179856      638.9267082056018
0.004830293931548535      638.0199072918011
0.005060048526376791      636.9177257176151
0.005289355629682316      635.8295757011124
0.005518393850920054      634.7554572422928
0.005747342428834         633.6953703411564
0.00597638081262499       632.6493149977034
0.006205688240655705      631.6172912119332
0.006435443321622868      630.5992989838464
0.006665339619110656      629.4916352374395
0.006894787442849326      628.4058232203112
0.007123965728649401      627.3418629324613
0.007353054043912613      626.2997543738901
0.007582232167524012      625.2794975445979
0.007811679667266285      624.281092444584
0.008041575479707366      623.3045390738489
0.008271887219609135      622.3123243991265
0.008501747728772392      621.3561774960633
0.008731337046705121      620.4360983646594
0.008960835851156599      619.5520870049147
0.009190425033567954      618.7041434168295
0.009420285272008154      617.8922676004033
0.009650596606620833      617.1164595556365
0.009881512912836019      616.3615892645095
0.010111974573021956      615.6556629561823
0.010342163040896366      614.9986806306548
0.010572260416492441      614.3906422879269
0.010802449016030204      613.8315479279992
0.011032910939230619      613.3213975508709
0.011263827639190652      612.8601911565424
0.011494048967061755      612.419369555505
0.011723820083820682      612.0512476584167
0.011953320682717213      611.7558254652777
0.012182731092678062      611.5331029760879
0.012412231855226382      611.3830801908476
0.012642003298903411      611.3057571095562
0.012872225116192546      611.3011337322143
0.013102446994778118      611.1679449326226
0.013332218499393473      611.125695692203
0.01356171932266464       611.1743860109555
0.013791129793276359      611.3140158888801
0.01402063045289555       611.5445853259772
0.014250401630592404      611.8660943222461
0.014480623019759359      612.2785428776873
0.014711539835704642      612.542004142551
0.014942001874208778      612.8835922325004
0.015172190588640395      613.3033071475353
0.01540228807899374       613.8011488876557
0.015632476661762654      614.3771174528617
0.015862938437253588      615.0312128431531
0.01609385485945594       615.7634350585301
0.016324115336228646      616.4191074683481
0.016553925013622208      617.1142102926664
0.016783463813500554      617.8487435314847
0.017012912294953733      618.6227071848033
0.01724245123020976       619.4361012526224
0.01747226117803945       620.2889257349412
0.017702522059672054      621.1811806317605
0.017932276794613372      622.0670771573448
0.018161584037218948      622.9801661760032
0.018390622397267263      623.9204476877354
0.018619571113827754      624.8879216925418
0.018848609636427344      625.8825881904226
0.019077917203754128      626.904447181377
0.019307672424828403      627.9534986654056
0.019537568573699274      628.8988293326569
0.01976701624968263       629.8617450639973
0.019996194388245302      630.842245859427
0.020225282556443316      631.8403317189459
0.020454460532815345      632.8560026425544
0.02068390788479834       633.8892586302519
0.020913803548616574      634.9400996820387
0.02114411498977932       635.7709646103233
0.021373975201947604      636.6169872479632
0.02160356422393484       637.4781675949581
0.02183306273279162       638.3545056513085
0.02206265161925901       639.2460014170143
0.02229251156070728       640.1526548920751
0.02252282259658549       641.0744660764914
0.022753738766914562      641.6617264959339
0.022984200292012823      642.252978661473
0.023214388625279938      642.8482225731084
0.023444485866429166      643.4474582308405
0.023674674331359946      644.0506856346695
0.023905136119473275      644.6579047845947
0.024136052683548088      645.2691156806167
0.024366274021741702      645.4749296655507
0.024596045148762867      645.6828675343235
0.024825545757885373      645.8929292869345
0.02505495617806012       646.1051149233845
0.02528445695083446       646.3194244436733
0.025514228404773787      646.5358578478002
0.025744450232385536      646.7544151357661
0.025974672267095825      646.630101987915
0.026204443926923768      646.4825454401189
0.02643394490485871       646.3117454923774
0.02666335552995085       646.1177021446907
0.026892856344233315      645.9004153970592
0.02712262767714175       645.6598852494818
0.02735284922243193       645.3961117019596
0.027583766528201624      644.7553998195543
0.027814229053652367      644.1049779596249
0.028044418253299775      643.4448461221709
0.02827451622829193       642.7750043071928
0.028504705296278778      642.0954525146907
0.028735167558720572      641.406190744664
0.028966084470753738      640.7072189971132
0.029196345605491433      639.8566624668048
0.02942615593701711       638.9772465494281
0.02965569538872289       638.0689712449828
0.029885144521236064      637.1318365534692
0.030114684108324883      636.1658424748872
0.030344494710297387      635.1709890092365
0.030574756249911007      634.1472761565174
0.030804511377321087      633.025537937089
0.031033819010118435      631.8972759271667
0.031262857758987544      630.7624901267503
0.03149180686390927       629.6211805358399
0.031720845775323685      628.4733471544358
0.031950153732830305      627.3189899825375
0.032179909346355486      626.1581090201453
0.0324098051544111        625.0028180045455
0.032639252491552244      623.8570474683692
0.03286843029245836       622.7207974116162
0.0330975181233935        621.5940678342868
0.03332669576210278       620.4768587363811
0.03355614277523119       619.3691701178985
0.033786038098215655      618.2710019788398
0.034016348759356954      617.216933539995
0.03424620819605658       616.1979661616568
0.034475796445315066      615.2140998438252
0.03470529418235937       614.2653345865003
0.03493488229610333       613.3516703896822
0.035164741462093585      612.4731072533705
0.03539505171796626       611.6296451775656
0.035625967353597694      610.8444308163205
0.03585642834714083       610.1148769581126
0.036086616150743635      609.4409836029416
0.03631671286286018       608.8227507508079
0.03654690079812825       608.2601784017115
0.036777362054689705      607.7532665556519
0.03700827808407173       607.3020152126296
0.03723849938140827       606.9015473779749
0.03746827046781093       606.5801581511422
0.03769777103645843       606.3378475321314
0.03792718141620601       606.1746155209428
0.0381566821485052        606.0904621175766
0.03838645356182577       606.0853873220321
0.03861667534858004       606.15939113431
0.038846895274787324      606.1539547299233
0.039076664838430766      606.2445867120585
0.03930616372759302       606.4312870807156
0.03953557226638858       606.7140558358949
0.039765070991905134      607.0928929775963
0.039994840228642616      607.5677985058194
0.040225059665450036      608.1387724205647
0.04045597761776665       608.6148790878511
0.04068644078597457       609.1702357337202
0.04091663062609736       609.8048423581721
0.041146729240799984      610.5186989612066
0.04137691894925231       611.3118055428241
0.04160738185443156       612.184162103024
0.04183829941298208       613.1357686418069
0.04206856149768976       614.0425628517527
0.04229837277362926       614.9861410215153
0.04252791316640542       615.9665031510942
0.04275736323887129       616.98364924049
0.04298690376702529       618.0375792897025
0.04321671531340127       619.1282932987314
0.04344697780296935       620.2557912675769
0.043676731016186174      621.432828681872
0.04390603674591497       622.6200060715626
0.04413507359840861       623.8173234366484
0.04436402080919017       625.0247807771298
0.044593057824233256      626.2423780930068
0.04482236387867965       627.4701153842791
0.045052117578024006      628.707992650947
0.045282012653644836      629.9435927653689
0.045511459262636354      631.1657875816759
0.04574063633797325       632.3745770998677
0.04596972344420469       633.5699613199447
0.046198900357357554      634.7519402419068
0.046428346642361965      635.9205138657537
0.04665824123294997       637.0756821914858
0.04688855484177433       638.1376728989845
0.04711841720894409       639.1800621320419
0.04734800837831597       640.2028498906582
0.04757750903201372       641.2060361748333
0.047807100065861544      642.1896209845675
0.04803696216230292       643.15360431986
0.04826727536583021       644.0979861807117
0.048498193048686675      644.8276671980465
0.048728656077441146      645.5352434540123
0.04895884590902903       646.2207149486086
0.04918894464672031       646.8840816818359
0.04941913460997818       647.5253436536944
0.04964959790176041       648.1445008641834
0.04988051597838159       648.7415533133036
0.05011073543954296       649.0054430712752
0.0503405047004922        649.2592150537163
0.05057000345013497       649.5028692606264
0.05079941201302823       649.7364056920056
0.05102891092631677       649.9598243478545
0.05125868051417213       650.1731252281721
0.051488900464733596      650.3763083329592
