% Model:              brazing.mph
% Version:            COMSOL 5.3.0.223
% Date:               Oct 23 2018, 12:57
% Dimension:          1
% Nodes:              193
% Expressions:        1
% Description:        Line graph
% x                       Height
0                         616.3635541340271
1.6028433640637486E-4     616.4511961395508
3.201839556876346E-4      616.5312368497605
4.7982673004648776E-4     616.6036762646561
6.393411493738095E-4      616.6685143842375
7.988560137323205E-4      616.7257512085049
9.58500122107595E-4       616.7753867374583
0.0011184019611720658     616.8174209710976
0.0012786893978073315     616.8518539094229
0.0014692881782178572     616.8811140936342
0.0016592398034323465     616.8938467881682
0.0018487589083489172     616.8900519930247
0.00203806159906999       616.8697297082039
0.0022273647228667317     616.8328799337056
0.0024168851255237504     616.77950266953
0.002606838908709185      616.7095979156769
0.0027974407000143733     616.6231656721465
0.003000214284638094      616.5061228530134
0.0032022105766743216     616.3738009682878
0.003403687017647933      616.22620001797
0.0036049030444305387     616.0633200020598
0.0038061191011872996     615.8851609205572
0.004007595631967136      615.6917227734623
0.00420959207329518       615.4830055607749
0.00441236586612622       615.2590092824953
0.004615139632985625      615.0057650129944
0.004817136048636202      614.7491138805656
0.005018612553936322      614.4890558852086
0.005219828585313435      614.2255910269237
0.005421044586718146      613.9587193057107
0.0056225210022172924     613.6884407215696
0.005824517268584787      613.4147552745006
0.006027290827249049      613.1376629645035
0.006217890949519272      612.8493274253761
0.006407844130704021      612.5785812787119
0.0065973647866391935     612.325424524511
0.00678666880286996       612.0898571627735
0.006975972806121895      611.8718791934991
0.007165493423165078      611.6714906166882
0.007355446539677438      611.4886914323405
0.007546046571713631      611.3234816404561
0.00770633524869351       611.1994082459431
0.007866237248851195      611.0924607021462
0.008025880956992212      611.0026390090653
0.008185395381580456      610.9299431667002
0.008344909844757132      610.874373175051
0.008504553668569658      610.8359290341178
0.008664455861201733      610.8146107439004
0.008824744806995652      610.8104183043989
0.008985029143401957      610.8245418216337
0.009144928762683142      610.8597721443901
0.009304571537041926      610.916109272668
0.009464085956369179      610.9935532064674
0.00962360082072762       611.0921039457884
0.009783244929102828      611.2117614906308
0.009943146768167231      611.3525258409948
0.010103434204802428      611.5143969968802
0.010294032985212885      611.7005418851928
0.010483984610427306      611.9056783252062
0.01067350371534381       612.1298063169204
0.010862806406064813      612.3729258603355
0.011052109529861487      612.6350369554515
0.011241629932518437      612.9161396022683
0.011431583715703804      613.2162338007861
0.011622185507008923      613.5353195510047
0.011824959091632737      613.8495754420529
0.012026955383669057      614.1567204626394
0.012228431824642762      614.4567546127644
0.01242964785142546       614.7496778924276
0.012630863908182311      615.0354903016291
0.012832340438962243      615.314191840369
0.01303433688029038       615.5857825086471
0.013237110673121513      615.8502623064636
0.013439884439981065      616.088957315325
0.013641880855631786      616.30856534564
0.013843357360932049      616.5090863974085
0.014044573392309304      616.6905204706304
0.014245789393714157      616.8528675653058
0.014447265809213447      616.9961276814347
0.014649262075581083      617.1203008190171
0.01485203563424549       617.2253869780529
0.015042635756515686      617.3101783040111
0.015232588937700405      617.3785334947493
0.015422109593635547      617.4304525502673
0.015611413609866287      617.4659354705655
0.015800717613118194      617.4849822556436
0.01599023823016135       617.4875929055015
0.01618019134667368       617.4737674201397
0.016370791378709844      617.4435057995577
0.016531080055689654      617.3924885813808
0.01669098205584727       617.3374994893496
0.016850625763988217      617.2785385234636
0.017010140188576394      617.215605683723
0.017169654651752998      617.1487009701277
0.017329298475565455      617.0778243826779
0.017489200668197463      617.0029759213735
0.01764948961399131       616.9241555862145
0.01780977395039525       616.8163275928171
0.017969673569674088      616.6967610485531
0.018129316344030533      616.5654559534224
0.01828883076335545       616.4224123074254
0.01844834562771156       616.2676301105616
0.01860798973608443       616.1011093628315
0.018767891575146484      615.9228500642347
0.018928179011779317      615.7328522147714
0.019118777792188433      615.4507875716432
0.019308729417401523      615.147165345413
0.019498248522316707      614.8219855360807
0.019687551213036395      614.4752481436462
0.019876854336831753      614.1069531681097
0.02006637473948738       613.717100609471
0.020256328522671414      613.3056904677303
0.020446930313975188      612.8727227428874
0.02064970389860279       612.3532241223644
0.02085170019064286       611.8215587703163
0.02105317663162028       611.2777266867428
0.02125439265840668       610.7217278716441
0.021455608715167235      610.1535623250203
0.02165708524595088       609.573230046871
0.021859081687282764      608.9807310371966
0.02206185548011769       608.376065295997
0.022264629246980954      607.7724159493292
0.022466625662635346      607.1812526790201
0.022668102167939252      606.6025754850698
0.022869318199320136      606.0363843674781
0.023070534200728618      605.4826793262453
0.023272010616231548      604.9414603613712
0.023474006882602858      604.4127274728559
0.02367678044127098       603.8964806606992
0.02386738056353977       603.3988629353211
0.024057333744723106      602.9353292817456
0.02424685440065687       602.5058796999728
0.024436158416886237      602.1105141900026
0.02462546242013677       601.7492327518352
0.024814983037178547      601.4220353854704
0.025004936153689494      601.1289220909083
0.025195536185724256      600.8698928681489
0.0253558248627017        600.6476186191451
0.025515726862856965      600.4545284105453
0.025675370570995573      600.2906222423499
0.02583488499558142       600.1559001145584
0.02599439945875569       600.0503620271712
0.02615404328256581       599.9740079801882
0.026313945475195465      599.9268379736094
0.026474234420986946      599.9088520074347
0.026634518757392422      599.9141461605228
0.02679441837667279       599.9453352788393
0.026954061151030752      600.0024193623835
0.02711357557035719       600.0853984111561
0.027273090434714816      600.1942724251568
0.027432734543089202      600.3290414043855
0.027592636382152785      600.4897053488423
0.02775292381878715       600.6762642585273
0.02794352259919713       600.9083371943202
0.02813347422441108       601.1733987392048
0.028322993329327112      601.4714488931808
0.028512296020047647      601.8024876562483
0.02870159914384385       602.1665150284074
0.028891119546500334      602.5635310096579
0.02908107332968523       602.9935356
0.029271675120989875      603.4565287994336
0.02947444870561504       603.96351195313
0.029676444997652693      604.4825317893909
0.02987792143862772       605.0135883082161
0.030079137465411736      605.5566815096055
0.030280353522169904      606.1118113935592
0.030481830052951155      606.6789779600774
0.030683826494280624      607.2581812091598
0.030886600287113104      607.8494211408066
0.03108937405397396       608.429360337425
0.03129137046962597       609.0032579413371
0.03149284697492751       609.5711139525428
0.03169406300630604       610.1329283710421
0.03189527900771217       610.688701196835
0.03209675542321274       611.2384324299217
0.03229875168958166       611.782122070302
0.03250152524824737       612.3197701179758
0.03269212537051706       612.7547777310791
0.03288207855170127       613.1664696710229
0.033071599207635916      613.5548459378076
0.033260903223866156      613.919906531433
0.033450207227117564      614.2616514518991
0.033639727844160215      614.5800806992058
0.03382968096067204       614.8751942733534
0.034020280992707694      615.1469921743416
0.034180569669686675      615.3424673547082
0.03434047166984347       615.5255411249589
0.0345001153779836        615.6962134850935
0.03465962980257096       615.8544844351121
0.03481914426574675       616.0003539750148
0.034978788089558385      616.1338221048017
0.03513869028218957       616.2548888244723
0.035298979227982585      616.3635541340271
