% Model:              brazing.mph
% Version:            COMSOL 5.3.0.223
% Date:               Oct 23 2018, 12:57
% Dimension:          1
% Nodes:              193
% Expressions:        1
% Description:        Line graph
% x                       Height
0                         583.904927301218
1.6028433640637486E-4     583.9814711893864
3.201839556876346E-4      584.0509996593538
4.7982673004648776E-4     584.11351271112
6.393411493738095E-4      584.1690103446853
7.988560137323205E-4      584.2174925600494
9.58500122107595E-4       584.2589593572126
0.0011184019611720658     584.2934107361746
0.0012786893978073315     584.3208466969355
0.0014692881782178572     584.3421667330355
0.0016592398034323465     584.3476120979648
0.0018487589083489172     584.3371827917238
0.00203806159906999       584.3108788143122
0.0022273647228667317     584.2687001657303
0.0024168851255237504     584.2106468459777
0.002606838908709185      584.1367188550548
0.0027974407000143733     584.0469161929615
0.003000214284638094      583.9289511203672
0.0032022105766743216     583.7965307843322
0.003403687017647933      583.6496551848562
0.0036049030444305387     583.4883243219394
0.0038061191011872996     583.3125381955819
0.004007595631967136      583.1222968057833
0.00420959207329518       582.9176001525441
0.00441236586612622       582.6984482358639
0.004615139632985625      582.4516958531716
0.004817136048636202      582.2016597433027
0.005018612553936322      581.9483399062575
0.005219828585313435      581.6917363420357
0.005421044586718146      581.4318490506374
0.0056225210022172924     581.1686780320629
0.005824517268584787      580.9022232863117
0.006027290827249049      580.632484813384
0.006217890949519272      580.3520363419846
0.006407844130704021      580.0888617694128
0.0065973647866391935     579.8429610956688
0.00678666880286996       579.6143343207527
0.006975972806121895      579.4029814446645
0.007165493423165078      579.2089024674041
0.007355446539677438      579.0320973889715
0.007546046571713631      578.8725662093667
0.00770633524869351       578.7528413174481
0.007866237248851195      578.6497437355334
0.008025880956992212      578.563273463623
0.008185395381580456      578.4934305017164
0.008344909844757132      578.440214849814
0.008504553668569658      578.4036265079156
0.008664455861201733      578.3836654760213
0.008824744806995652      578.3803317541311
0.008985029143401957      578.3949219030306
0.009144928762683142      578.4301375491532
0.009304571537041926      578.4859786924989
0.009464085956369179      578.5624453330677
0.00962360082072762       578.6595374708595
0.009783244929102828      578.7772551058746
0.009943146768167231      578.9155982381126
0.010103434204802428      579.0745668675738
0.010294032985212885      579.256374118999
0.010483984610427306      579.4568763981865
0.01067350371534381       579.6760737051366
0.010862806406064813      579.913966039849
0.011052109529861487      580.170553402324
0.011241629932518437      580.4458357925613
0.011431583715703804      580.739813210561
0.011622185507008923      581.0524856563233
0.011824959091632737      581.3617413281909
0.012026955383669057      581.6640011231003
0.012228431824642762      581.9592650410513
0.01242964785142546       582.247533082044
0.012630863908182311      582.5288052460784
0.012832340438962243      582.8030815331545
0.01303433688029038       583.0703619432722
0.013237110673121513      583.3306464764316
0.013439884439981065      583.5678756493775
0.013641880855631786      583.7866282038491
0.013843357360932049      583.986904139846
0.014044573392309304      584.1687034573687
0.014245789393714157      584.3320261564169
0.014447265809213447      584.4768722369905
0.014649262075581083      584.6032416990898
0.01485203563424549       584.7111345427147
0.015042635756515686      584.8003829470052
0.015232588937700405      584.8737945144055
0.015422109593635547      584.9313692449155
0.015611413609866287      584.973107138535
0.015800717613118194      584.9990081952644
0.01599023823016135       585.0090724151033
0.01618019134667368       585.003299798052
0.016370791378709844      584.9816903441103
0.016531080055689654      584.9387330298422
0.01669098205584727       584.8923262991307
0.016850625763988217      584.8424701519758
0.017010140188576394      584.7891645883775
0.017169654651752998      584.7324096083357
0.017329298475565455      584.6722052118507
0.017489200668197463      584.6085513989221
0.01764948961399131       584.5414481695502
0.01780977395039525       584.4453023330501
0.017969673569674088      584.3379816305834
0.018129316344030533      584.2194860621506
0.01828883076335545       584.0898156277515
0.01844834562771156       583.9489703273861
0.01860798973608443       583.7969501610543
0.018767891575146484      583.6337551287561
0.018928179011779317      583.4593852304916
0.019118777792188433      583.195041962383
0.019308729417401523      582.9096338547348
0.019498248522316707      582.603160907547
0.019687551213036395      582.2756231208197
0.019876854336831753      581.9270204945527
0.02006637473948738       581.5573530287462
0.020256328522671414      581.1666207234001
0.020446930313975188      580.7548235785144
0.02064970389860279       580.2631833252672
0.02085170019064286       579.7594223492372
0.02105317663162028       579.243540650424
0.02125439265840668       578.7155382288282
0.021455608715167235      578.1754150844494
0.02165708524595088       577.6231712172877
0.021859081687282764      577.0588066273431
0.02206185548011769       576.4823213146155
0.022264629246980954      575.9096505110066
0.022466625662635346      575.3484441188473
0.022668102167939252      574.7987021381377
0.022869318199320136      574.2604245688777
0.023070534200728618      573.7336114110674
0.023272010616231548      573.2182626647068
0.023474006882602858      572.7143783297957
0.02367678044127098       572.2219584063344
0.02386738056353977       571.7473500014461
0.024057333744723106      571.3052426330593
0.02424685440065687       570.8956363011742
0.024436158416886237      570.5185310057909
0.02462546242013677       570.1739267469093
0.024814983037178547      569.8618235245293
0.025004936153689494      569.582221338651
0.025195536185724256      569.3351201892743
0.0253558248627017        569.122147045066
0.025515726862856965      568.9370259907618
0.025675370570995573      568.7797570263616
0.02583488499558142       568.6503401518655
0.02599439945875569       568.5487753672735
0.02615404328256581       568.4750626725855
0.026313945475195465      568.4292020678017
0.026474234420986946      568.4111935529219
0.026634518757392422      568.4153599118216
0.02679441837667279       568.4441376958526
0.026954061151030752      568.4975269050145
0.02711357557035719       568.5755275393076
0.027273090434714816      568.6781395987317
0.027432734543089202      568.8053630832868
0.027592636382152785      568.957197992973
0.02775292381878715       569.1336443277902
0.02794352259919713       569.3525077705499
0.02813347422441108       569.6027688365973
0.028322993329327112      569.8844275259328
0.028512296020047647      570.1974838385562
0.02870159914384385       570.5419377744676
0.028891119546500334      570.9177893336667
0.02908107332968523       571.325038516154
0.029271675120989875      571.7636853219292
0.02947444870561504       572.2457484633701
0.029676444997652693      572.7386653265734
0.02987792143862772       573.2424359115386
0.030079137465411736      573.7570602182661
0.030280353522169904      574.2825382467558
0.030481830052951155      574.8188699970076
0.030683826494280624      575.3660554690216
0.030886600287113104      575.9240946627979
0.03108937405397396       576.4723887835034
0.03129137046962597       577.014722604493
0.03149284697492751       577.5510961257663
0.03169406300630604       578.0815093473234
0.03189527900771217       578.6059622691643
0.03209675542321274       579.1244548912889
0.03229875168958166       579.6369872136974
0.03250152524824737       580.1435592363896
0.03269212537051706       580.554394201047
0.03288207855170127       580.9424948910195
0.033071599207635916      581.3078613063068
0.033260903223866156      581.6504934469092
0.033450207227117564      581.9703913128266
0.033639727844160215      582.267554904059
0.03382968096067204       582.5419842206064
0.034020280992707694      582.7936792624688
0.034180569669686675      582.9738749796525
0.03434047166984347       583.1422736361675
0.0345001153779836        583.2988752320141
0.03465962980257096       583.4436797671921
0.03481914426574675       583.5766872417014
0.034978788089558385      583.6978976555421
0.03513869028218957       583.8073110087144
0.035298979227982585      583.904927301218
