% Model:              brazing.mph
% Version:            COMSOL 5.3.0.223
% Date:               Oct 23 2018, 13:40
% Dimension:          1
% Nodes:              225
% Expressions:        1
% Description:        Line graph
% x                       Height
0                         648.5110133131868
2.3022181212578358E-4     648.3645500015123
4.5999325066962656E-4     648.1915848442986
6.894940081029028E-4      647.992117841546
9.189044129547812E-4      647.7661489932545
0.001148405006736289      647.5136782994241
0.0013781761183620641     647.2347057600543
0.001608397441069865      646.9292313751457
0.001839314118928521      646.2153429416004
0.0020697760201574002     645.5055599353035
0.002299964597801726      644.7998823562551
0.0025300619515304015     644.0983102044551
0.0027602503975112853     643.4008434799039
0.0029907120357255193     642.7074821826008
0.003221628319839081      642.0182263125463
0.0034518885683530987     641.1094234566001
0.0036816980188178403     640.1909146975041
0.003911236592567028      639.2627000352584
0.004140684848157368      638.3247794698631
0.004370223557282477      637.3771530013182
0.004600033278179856      636.4198206296234
0.004830293931548535      635.452782354779
0.005060048526376791      634.3014957823941
0.005289355629682316      633.1621045733975
0.005518393850920054      632.0346087277889
0.005747342428834         630.9190082455683
0.00597638081262499       629.8153031267361
0.006205688240655705      628.7234933712917
0.006435443321622868      627.6435789792357
0.006665339619110656      626.4851131807317
0.006894787442849326      625.3468818191421
0.007123965728649401      624.2288848944668
0.007353054043912613      623.1311224067059
0.007582232167524012      622.0535943558598
0.007811679667266285      620.9963007419276
0.008041575479707366      619.9592415649099
0.008271887219609135      618.917576665837
0.008501747728772392      617.912206732971
0.008731337046705121      616.9431317663117
0.008960835851156599      616.0103517658592
0.009190425033567954      615.113866731614
0.009420285272008154      614.2536766635754
0.009650596606620833      613.4297815617438
0.009881512912836019      612.635831276107
0.010111974573021956      611.8924521294653
0.010342163040896366      611.1996441218187
0.010572260416492441      610.5574072531671
0.010802449016030204      609.965741523511
0.011032910939230619      609.4246469328497
0.011263827639190652      608.9341234811837
0.011494048967061755      608.4681443675445
0.011723820083820682      608.0802036933927
0.011953320682717213      607.7703014587283
0.012182731092678062      607.5384376635515
0.012412231855226382      607.3846123078622
0.012642003298903411      607.3088253916602
0.012872225116192546      607.3110769149457
0.013102446994778118      607.1572025349998
0.013332218499393473      607.1035396217738
0.01356171932266464       607.150088175268
0.013791129793276359      607.2968481954824
0.01402063045289555       607.5438196824173
0.014250401630592404      607.8910026360719
0.014480623019759359      608.338397056447
0.014711539835704642      608.6073098331582
0.014942001874208778      608.9616277556414
0.015172190588640395      609.4013508238966
0.01540228807899374       609.9264790379236
0.015632476661762654      610.5370123977231
0.015862938437253588      611.2329509032941
0.01609385485945594       612.0142945546373
0.016324115336228646      612.7071270137762
0.016553925013622208      613.4403581404488
0.016783463813500554      614.2139879346548
0.017012912294953733      615.0280163963945
0.01724245123020976       615.8824435256679
0.01747226117803945       616.7772693224745
0.017702522059672054      617.7124937868149
0.017932276794613372      618.6526387087176
0.018161584037218948      619.6189426370133
0.018390622397267263      620.6114055717017
0.018619571113827754      621.6300275127828
0.018848609636427344      622.6748084602572
0.019077917203754128      623.7457484141239
0.019307672424828403      624.8428473743836
0.019537568573699274      625.8477479804152
0.01976701624968263       626.8675465261205
0.019996194388245302      627.9022430114991
0.020225282556443316      628.9518374365514
0.020454460532815345      630.0163298012774
0.02068390788479834       631.0957201056766
0.020913803548616574      632.1900083497495
0.02114411498977932       633.0739029158899
0.021373975201947604      633.9699847944943
0.02160356422393484       634.8782539855624
0.02183306273279162       635.7987104890946
0.02206265161925901       636.7313543050909
0.02229251156070728       637.6761854335509
0.02252282259658549       638.633203874475
0.022753738766914562      639.2620347437223
0.022984200292012823      639.8913586431806
0.023214388625279938      640.5211755728503
0.023444485866429166      641.1514855327308
0.023674674331359946      641.7822885228227
0.023905136119473275      642.4135845431255
0.024136052683548088      643.0453735936395
0.024366274021741702      643.2730279533073
0.024596045148762867      643.5021416328991
0.024825545757885373      643.7327146324152
0.02505495617806012       643.964746951855
0.02528445695083446       644.1982385912194
0.025514228404773787      644.4331895505072
0.025744450232385536      644.6695998297193
0.025974672267095825      644.5301762109686
0.026204443926923768      644.3708866861184
0.02643394490485871       644.1917312551683
0.02666335552995085       643.9927099181187
0.026892856344233315      643.7738226749698
0.02712262767714175       643.5350695257209
0.02735284922243193       643.2764504703727
0.027583766528201624      642.6028102464335
0.027814229053652367      641.9217575083646
0.028044418253299775      641.2332922561657
0.02827451622829193       640.5374144898373
0.028504705296278778      639.8341242093793
0.028735167558720572      639.1234214147913
0.028966084470753738      638.4053061060737
0.029196345605491433      637.5156948996204
0.02942615593701711       636.5944283710444
0.02965569538872289       635.6415065203454
0.029885144521236064      634.6569293475237
0.030114684108324883      633.6406968525794
0.030344494710297387      632.5928090355119
0.030574756249911007      631.5132658963219
0.030804511377321087      630.3431011766529
0.031033819010118435      629.1637682209847
0.031262857758987544      627.975267029317
0.03149180686390927       626.7775976016503
0.031720845775323685      625.5707599379846
0.031950153732830305      624.3547540383191
0.032179909346355486      623.1295799026547
0.0324098051544111        621.9210013894457
0.032639252491552244      620.7202396298876
0.03286843029245836       619.5272946239804
0.0330975181233935        618.3421663717241
0.03332669576210278       617.1648548731191
0.03355614277523119       615.9953601281645
0.033786038098215655      614.8336821368612
0.034016348759356954      613.7269476621673
0.03424620819605658       612.6558422062991
0.034475796445315066      611.6203657692562
0.03470529418235937       610.6205183510389
0.03493488229610333       609.6562999516473
0.035164741462093585      608.7277105710809
0.03539505171796626       607.8347502093402
0.035625967353597694      607.008945617835
0.03585642834714083       606.2409863433317
0.036086616150743635      605.5308723858303
0.03631671286286018       604.8786037453312
0.03654690079812825       604.2841804218342
0.036777362054689705      603.747602415339
0.03700827808407173       603.268869725846
0.03723849938140827       602.8454463622079
0.03746827046781093       602.5067897324103
0.03769777103645843       602.2528998364533
0.03792718141620601       602.0837766743367
0.0381566821485052        601.9994202460609
0.03838645356182577       601.9998305516255
0.03861667534858004       602.0850075910306
0.038846895274787324      602.0671881147092
0.039076664838430766      602.15457568173
0.03930616372759302       602.3471702920928
0.03953557226638858       602.6449719457975
0.039765070991905134      603.0479806428445
0.039994840228642616      603.5561963832333
0.040225059665450036      604.1696191669644
0.04045597761776665       604.6625780074902
0.04068644078597457       605.2420483505654
0.04091663062609736       605.9080301961898
0.041146729240799984      606.6605235443636
0.04137691894925231       607.4995283950869
0.04160738185443156       608.4250447483593
0.04183829941298208       609.4370726041811
0.04206856149768976       610.3945151974747
0.04229837277362926       611.3897459382213
0.04252791316640542       612.4227648264206
0.04275736323887129       613.4935718620729
0.04298690376702529       614.6021670451786
0.04321671531340127       615.7485503757367
0.04344697780296935       616.932721853748
0.043676731016186174      618.1766884325167
0.04390603674591497       619.4296050318386
0.04413507359840861       620.6914716517135
0.04436402080919017       621.9622882921418
0.044593057824233256      623.2420549531234
0.04482236387867965       624.5307716346581
0.045052117578024006      625.828438336746
0.045282012653644836      627.1342810966659
0.045511459262636354      628.4234490154992
0.04574063633797325       629.695942093246
0.04596972344420469       630.9517603299064
0.046198900357357554      632.1909037254807
0.046428346642361965      633.4133722799681
0.04665824123294997       634.6191659933694
0.04688855484177433       635.739852458253
0.04711841720894409       636.8370500646572
0.04734800837831597       637.9107588125819
0.04757750903201372       638.9609787020273
0.047807100065861544      639.9877097329935
0.04803696216230292       640.99095190548
0.04826727536583021       641.9707052194872
0.048498193048686675      642.7408554039771
0.048728656077441146      643.4844558727207
0.04895884590902903       644.2015066257176
0.04918894464672031       644.892007662968
0.04941913460997818       645.5559589844722
0.04964959790176041       646.1933605902296
0.04988051597838159       646.8042124802407
0.05011073543954296       647.0819765899189
0.0503405047004922        647.348428893178
0.05057000345013497       647.603569390018
0.05079941201302823       647.8473980804389
0.05102891092631677       648.0799149644408
0.05125868051417213       648.3011200420233
0.051488900464733596      648.5110133131868
