% Model:              brazing.mph
% Version:            COMSOL 5.3.0.223
% Date:               Oct 23 2018, 13:16
% Dimension:          1
% Nodes:              225
% Expressions:        1
% Description:        Line graph
% x                       Height
0                         617.1251779850934
2.3022181212578358E-4     616.98784232792
4.5999325066962656E-4     616.8254009593735
6.894940081029028E-4      616.6378538794537
9.189044129547812E-4      616.4252010881605
0.001148405006736289      616.1874425854943
0.0013781761183620641     615.9245783714545
0.001608397441069865      615.6366084460417
0.001839314118928521      614.9538935409125
0.0020697760201574002     614.2762064581244
0.002299964597801726      613.6035471976772
0.0025300619515304015     612.9359157595711
0.0027602503975112853     612.2733121438063
0.0029907120357255193     611.6157363503822
0.003221628319839081      610.9631883792995
0.0034518885683530987     610.097801341929
0.0036816980188178403     609.2248129576642
0.003911236592567028      608.3442232265052
0.004140684848157368      607.4560321484521
0.004370223557282477      606.5602397235049
0.004600033278179856      605.6568459516634
0.004830293931548535      604.7458508329278
0.005060048526376791      603.6494058259907
0.005289355629682316      602.5656821743273
0.005518393850920054      601.4946798779372
0.005747342428834         600.4363989368206
0.00597638081262499       599.390839350978
0.006205688240655705      598.3580011204084
0.006435443321622868      597.3378842451126
0.006665339619110656      596.2367861700966
0.006894787442849326      595.1558977105865
0.007123965728649401      594.0952188665821
0.007353054043912613      593.0547496380835
0.007582232167524012      592.0344900250911
0.007811679667266285      591.0344400276041
0.008041575479707366      590.0545996456232
0.008271887219609135      589.0663451526818
0.008501747728772392      588.1131171798037
0.008731337046705121      587.1949157269887
0.008960835851156599      586.311740794237
0.009190425033567954      585.4635923815489
0.009420285272008154      584.6504704889236
0.009650596606620833      583.8723751163617
0.009881512912836019      583.1202621120582
0.010111974573021956      582.4164398378247
0.010342163040896366      581.7609082936611
0.010572260416492441      581.1536674795676
0.010802449016030204      580.5947173955443
0.011032910939230619      580.0840580415907
0.011263827639190652      579.6216894177072
0.011494048967061755      579.1812558394608
0.011723820083820682      578.8147561695081
0.011953320682717213      578.5221904078492
0.012182731092678062      578.303558554484
0.012412231855226382      578.158860609413
0.012642003298903411      578.0880965726353
0.012872225116192546      578.0912664441516
0.013102446994778118      577.9497837004285
0.013332218499393473      577.9026069141673
0.01356171932266464       577.9497360853682
0.013791129793276359      578.0911712140311
0.01402063045289555       578.3269123001562
0.014250401630592404      578.6569593437432
0.014480623019759359      579.0813123447923
0.014711539835704642      579.3397557350949
0.014942001874208778      579.6786886160832
0.015172190588640395      580.0981109877573
0.01540228807899374       580.598022850117
0.015632476661762654      581.1784242031629
0.015862938437253588      581.8393150468942
0.01609385485945594       582.5806953813113
0.016324115336228646      583.2388841474965
0.016553925013622208      583.9358203647229
0.016783463813500554      584.6715040329904
0.017012912294953733      585.4459351522988
0.01724245123020976       586.2591137226486
0.01747226117803945       587.1110397440393
0.017702522059672054      588.0017132164712
0.017932276794613372      588.8929774182717
0.018161584037218948      589.8099573161717
0.018390622397267263      590.7526529101714
0.018619571113827754      591.7210642002708
0.018848609636427344      592.71519118647
0.019077917203754128      593.7350338687687
0.019307672424828403      594.7805922471672
0.019537568573699274      595.7312956487095
0.01976701624968263       596.6976829779609
0.019996194388245302      597.679754234921
0.020225282556443316      598.6775094195903
0.020454460532815345      599.6909485319688
0.02068390788479834       600.720071572056
0.020913803548616574      601.7648785398524
0.02114411498977932       602.5989115117793
0.021373975201947604      603.4466527141512
0.02160356422393484       604.308102146968
0.02183306273279162       605.1832598102297
0.02206265161925901       606.0721257039366
0.02229251156070728       606.974699828088
0.02252282259658549       607.8909821826845
0.022753738766914562      608.4813590854195
0.022984200292012823      609.0744743943415
0.023214388625279938      609.6703281094501
0.023444485866429166      610.2689202307455
0.023674674331359946      610.8702507582282
0.023905136119473275      611.4743196918973
0.024136052683548088      612.0811270317536
0.024366274021741702      612.28869668825
0.024596045148762867      612.4995963679233
0.024825545757885373      612.7138260707737
0.02505495617806012       612.931385796801
0.02528445695083446       613.1522755460057
0.025514228404773787      613.376495318387
0.025744450232385536      613.6040451139455
0.025974672267095825      613.4702193113433
0.026204443926923768      613.3176181370815
0.02643394490485871       613.1462415911602
0.02666335552995085       612.9560896735794
0.026892856344233315      612.7471623843393
0.02712262767714175       612.5194597234394
0.02735284922243193       612.2729816908801
0.027583766528201624      611.6271135274275
0.027814229053652367      610.9746924534868
0.028044418253299775      610.3157184690577
0.02827451622829193       609.6501915741406
0.028504705296278778      608.9781117687356
0.028735167558720572      608.2994790528421
0.028966084470753738      607.6142934264607
0.029196345605491433      606.7653009423118
0.02942615593701711       605.886858947132
0.02965569538872289       604.978967440921
0.029885144521236064      604.041626423679
0.030114684108324883      603.0748358954061
0.030344494710297387      602.0785958561019
0.030574756249911007      601.0529063057667
0.030804511377321087      599.9356222471574
0.031033819010118435      598.8102634526855
0.031262857758987544      597.6768299223507
0.03149180686390927       596.5353216561532
0.031720845775323685      595.3857386540933
0.031950153732830305      594.2280809161701
0.032179909346355486      593.0623484423845
0.0324098051544111        591.9100905678675
0.032639252491552244      590.7656687855645
0.03286843029245836       589.6290830954749
0.0330975181233935        588.5003334975992
0.03332669576210278       587.3794199919375
0.03355614277523119       586.2663425784893
0.033786038098215655      585.161101257255
0.034016348759356954      584.1061990056501
0.03424620819605658       583.0854709269101
0.034475796445315066      582.0989170210352
0.03470529418235937       581.1465372880252
0.03493488229610333       580.2283317278807
0.035164741462093585      579.3443003406006
0.03539505171796626       578.4944431261858
0.035625967353597694      577.7071700259039
0.03585642834714083       576.9750972376997
0.036086616150743635      576.2982247615734
0.03631671286286018       575.6765525975247
0.03654690079812825       575.1100807455542
0.036777362054689705      574.5988092056613
0.03700827808407173       574.1427379778462
0.03723849938140827       573.7387398199797
0.03746827046781093       573.4150509031559
0.03769777103645843       573.1716712273749
0.03792718141620601       573.0086007926367
0.0381566821485052        572.9258395989414
0.03838645356182577       572.9233876462886
0.03861667534858004       573.0012449346788
0.038846895274787324      572.9858917093815
0.039076664838430766      573.0696448045425
0.03930616372759302       573.2525042201614
0.03953557226638858       573.5344699562386
0.039765070991905134      573.9155420127744
0.039994840228642616      574.395720389768
0.040225059665450036      574.97500508722
0.04045597761776665       575.4447992725017
0.04068644078597457       575.9961040993018
0.04091663062609736       576.62891956762
0.041146729240799984      577.3432456774567
0.04137691894925231       578.139082428812
0.04160738185443156       579.0164298216853
0.04183829941298208       579.9752878560772
0.04206856149768976       580.8838636139367
0.04229837277362926       581.8286122762056
0.04252791316640542       582.8095338428838
0.04275736323887129       583.8266283139712
0.04298690376702529       584.8798956894683
0.04321671531340127       585.9693359693744
0.04344697780296935       587.09494915369
0.043676731016186174      588.2761405588684
0.04390603674591497       589.4662015162004
0.04413507359840861       590.6651320256861
0.04436402080919017       591.8729320873257
0.044593057824233256      593.0896017011194
0.04482236387867965       594.3151408670665
0.045052117578024006      595.5495495851675
0.045282012653644836      596.7891765304004
0.045511459262636354      598.0135506872916
0.04574063633797325       599.2226720558409
0.04596972344420469       600.4165406360485
0.046198900357357554      601.5951564279145
0.046428346642361965      602.7585194314385
0.04665824123294997       603.9066296466208
0.04688855484177433       604.96908785741
0.04711841720894409       606.0104235659416
0.04734800837831597       607.0306367722151
0.04757750903201372       608.0297274762308
0.047807100065861544      609.0076956779892
0.04803696216230292       609.9645413774894
0.04826727536583021       610.9002645747319
0.048498193048686675      611.6283004460005
0.048728656077441146      612.332813331644
0.04895884590902903       613.0138032316623
0.04918894464672031       613.6712701460555
0.04941913460997818       614.3052140748238
0.04964959790176041       614.9156350179666
0.04988051597838159       615.5025329754844
0.05011073543954296       615.7608939751515
0.0503405047004922        616.0104034515778
0.05057000345013497       616.2510614047628
0.05079941201302823       616.482867834707
0.05102891092631677       616.7058227414103
0.05125868051417213       616.9199261248723
0.051488900464733596      617.1251779850934
