% Model:              brazing.mph
% Version:            COMSOL 5.3.0.223
% Date:               Oct 23 2018, 13:49
% Dimension:          1
% Nodes:              193
% Expressions:        1
% Description:        Line graph
% x                       Height
0                         640.3845475861385
1.6028433640637486E-4     640.4772695211923
3.201839556876346E-4      640.5619907735417
4.7982673004648776E-4     640.6387113431867
6.393411493738095E-4      640.7074312301273
7.988560137323205E-4      640.7681504343635
9.58500122107595E-4       640.8208689558954
0.0011184019611720658     640.8655867947228
0.0012786893978073315     640.9023039508459
0.0014692881782178572     640.9334899763653
0.0016592398034323465     640.9470345148036
0.0018487589083489172     640.942937566161
0.00203806159906999       640.9211991304376
0.0022273647228667317     640.881819207633
0.0024168851255237504     640.8247977977476
0.002606838908709185      640.7501349007811
0.0027974407000143733     640.6578305167336
0.003000214284638094      640.5347013431233
0.0032022105766743216     640.3953041771298
0.003403687017647933      640.2396390187528
0.0036049030444305387     640.0677058679928
0.0038061191011872996     639.8795047248495
0.004007595631967136      639.6750355893231
0.00420959207329518       639.4542984614134
0.00441236586612622       639.2172933411204
0.004615139632985625      638.9483509013364
0.004817136048636202      638.6758290803718
0.005018612553936322      638.3997278782264
0.005219828585313435      638.1200472949001
0.005421044586718146      637.836787330393
0.0056225210022172924     637.5499479847051
0.005824517268584787      637.2595292578364
0.006027290827249049      636.9655311497869
0.006217890949519272      636.6599854307732
0.006407844130704021      636.3731074997501
0.0065973647866391935     636.1048973567177
0.00678666880286996       635.8553550016758
0.006975972806121895      635.6244804346245
0.007165493423165078      635.4122736555637
0.007355446539677438      635.2187346644936
0.007546046571713631      635.043863461414
0.00770633524869351       634.9129054960878
0.007866237248851195      634.8000869365093
0.008025880956992212      634.7054077826787
0.008185395381580456      634.6288680345962
0.008344909844757132      634.5704676922616
0.008504553668569658      634.5302067556747
0.008664455861201733      634.508085224836
0.008824744806995652      634.5041030997451
0.008985029143401957      634.519992964887
0.009144928762683142      634.5581973816893
0.009304571537041926      634.6187163501518
0.009464085956369179      634.7015498702747
0.00962360082072762       634.8066979420578
0.009783244929102828      634.9341605655014
0.009943146768167231      635.0839377406052
0.010103434204802428      635.2560294673693
0.010294032985212885      635.4543600690657
0.010483984610427306      635.6727838878242
0.01067350371534381       635.9113009236446
0.010862806406064813      636.1699111765271
0.011052109529861487      636.4486146464716
0.011241629932518437      636.7474113334782
0.011431583715703804      637.0663012375468
0.011622185507008923      637.4052843586775
0.011824959091632737      637.739679860276
0.012026955383669057      638.0665217121054
0.012228431824642762      638.3858099141656
0.01242964785142546       638.6975444664565
0.012630863908182311      639.0017253689781
0.012832340438962243      639.2983526217305
0.01303433688029038       639.5874262247135
0.013237110673121513      639.8689461779272
0.013439884439981065      640.1222429972714
0.013641880855631786      640.355292105496
0.013843357360932049      640.5680935026006
0.014044573392309304      640.7606471885857
0.014245789393714157      640.9329531634511
0.014447265809213447      641.0850114271965
0.014649262075581083      641.2168219798224
0.01485203563424549       641.3283848213284
0.015042635756515686      641.4188979776809
0.015232588937700405      641.4919089054416
0.015422109593635547      641.5474176046107
0.015611413609866287      641.585424075188
0.015800717613118194      641.6059283171737
0.01599023823016135       641.6089303305677
0.01618019134667368       641.5944301153697
0.016370791378709844      641.5624276715803
0.016531080055689654      641.508496918024
0.01669098205584727       641.450393196765
0.016850625763988217      641.3881165078038
0.017010140188576394      641.32166685114
0.017169654651752998      641.2510442267736
0.017329298475565455      641.1762486347046
0.017489200668197463      641.0972800749332
0.01764948961399131       641.0141385474593
0.01780977395039525       640.8998548894218
0.017969673569674088      640.773070746714
0.018129316344030533      640.6337861193357
0.01828883076335545       640.482001007287
0.01844834562771156       640.3177154105679
0.01860798973608443       640.1409293291783
0.018767891575146484      639.9516427631183
0.018928179011779317      639.749855712388
0.019118777792188433      639.4506671409328
0.019308729417401523      639.1285263376091
0.019498248522316707      638.7834333024167
0.019687551213036395      638.4153880353559
0.019876854336831753      638.0243905364266
0.02006637473948738       637.6104408056289
0.020256328522671414      637.1735388429626
0.020446930313975188      636.7136846484277
0.02064970389860279       636.1617662581448
0.02085170019064286       635.5969121422418
0.02105317663162028       635.019122300719
0.02125439265840668       634.4283967335762
0.021455608715167235      633.8247354408134
0.02165708524595088       633.2081384224307
0.021859081687282764      632.5786056784281
0.02206185548011769       631.9361372088055
0.022264629246980954      631.2939438714166
0.022466625662635346      630.6649692609243
0.022668102167939252      630.0492133773288
0.022869318199320136      629.4466762206299
0.023070534200728618      628.8573577908277
0.023272010616231548      628.2812580879221
0.023474006882602858      627.7183771119132
0.02367678044127098       627.1687148628009
0.02386738056353977       626.6393403747622
0.024057333744723106      626.146156317994
0.02424685440065687       625.6891626924969
0.024436158416886237      625.2683594982703
0.02462546242013677       624.8837467353146
0.024814983037178547      624.5353244036296
0.025004936153689494      624.2230925032153
0.025195536185724256      623.9470510340718
0.0253558248627017        623.7105924117722
0.025515726862856965      623.5050616089387
0.025675370570995573      623.3304586255716
0.02583488499558142       623.1867834616709
0.02599439945875569       623.0740361172365
0.02615404328256581       622.9922165922684
0.026313945475195465      622.9413248867666
0.026474234420986946      622.921361000731
0.026634518757392422      622.9267032415822
0.02679441837667279       622.9594605395877
0.026954061151030752      623.0196328947472
0.02711357557035719       623.1072203070612
0.027273090434714816      623.2222227765294
0.027432734543089202      623.364640303152
0.027592636382152785      623.5344728869287
0.02775292381878715       623.7317205278597
0.02794352259919713       623.9781047856709
0.02813347422441108       624.2595683114781
0.028322993329327112      624.5761111052813
0.028512296020047647      624.9277331670803
0.02870159914384385       625.3144344968754
0.028891119546500334      625.7362150946662
0.02908107332968523       626.1930749604531
0.029271675120989875      626.685014094236
0.02947444870561504       627.2236870767883
0.029676444997652693      627.7751801825694
0.02987792143862772       628.3394934115797
0.030079137465411736      628.9166267638188
0.030280353522169904      629.506580239287
0.030481830052951155      630.1093538379843
0.030683826494280624      630.7249475599104
0.030886600287113104      631.3533614050656
0.03108937405397396       631.9688065545446
0.03129137046962597       632.5777019773884
0.03149284697492751       633.1800476735971
0.03169406300630604       633.7758436431704
0.03189527900771217       634.3650898861086
0.03209675542321274       634.9477864024117
0.03229875168958166       635.5239331920794
0.03250152524824737       636.093530255112
0.03269212537051706       636.5560913386124
0.03288207855170127       636.9937299915503
0.033071599207635916      637.4064462139254
0.033260903223866156      637.7942400057381
0.033450207227117564      638.157111366988
0.033639727844160215      638.4950602976754
0.03382968096067204       638.8080867978001
0.034020280992707694      639.0961908673622
0.034180569669686675      639.3031211797627
0.03434047166984347       639.4969412857195
0.0345001153779836        639.6776511852322
0.03465962980257096       639.8452508783012
0.03481914426574675       639.9997403649263
0.034978788089558385      640.1411196451076
0.03513869028218957       640.269388718845
0.035298979227982585      640.3845475861385
