% Model:              brazing.mph
% Version:            COMSOL 5.3.0.223
% Date:               Oct 23 2018, 11:55
% Table:              Table 3 - 
% Time (s)               Temperature (Cp_Al = 890.4, k_Al = 151.7, sigma_Al = 3.9564E7, rho_Al = 2875.6, Cp_inlet = 923.9, k_inlet = 162.3, sigma_inlet = 3.3988E7, rho_inlet = 2931.5, Cp_outlet = 972.5, k_outlet = 152.1, sigma_outlet = 3.7712E7, rho_outlet = 2859.9, Cp_outlet_sleeve = 874.8, k_outlet_sleeve = 149.2, sigma_outlet_sleeve = 3.8985E7, rho_outlet_sleeve = 2893.3, Cp_inlet_sleeve = 921.4, k_inlet_sleeve = 156.2, sigma_inlet_sleeve = 3.4358E7, rho_inlet_sleeve = 2597.9) (degC), Point: 55Temperature (Cp_Al = 890.4, k_Al = 151.7, sigma_Al = 3.9564E7, rho_Al = 2875.6, Cp_inlet = 923.9, k_inlet = 162.3, sigma_inlet = 3.3988E7, rho_inlet = 2931.5, Cp_outlet = 972.5, k_outlet = 152.1, sigma_outlet = 3.7712E7, rho_outlet = 2859.9, Cp_outlet_sleeve = 874.8, k_outlet_sleeve = 149.2, sigma_outlet_sleeve = 3.8985E7, rho_outlet_sleeve = 2893.3, Cp_inlet_sleeve = 921.4, k_inlet_sleeve = 156.2, sigma_inlet_sleeve = 3.4358E7, rho_inlet_sleeve = 2597.9) (degC), Point: 56Temperature (Cp_Al = 890.4, k_Al = 151.7, sigma_Al = 3.9564E7, rho_Al = 2875.6, Cp_inlet = 923.9, k_inlet = 162.3, sigma_inlet = 3.3988E7, rho_inlet = 2931.5, Cp_outlet = 972.5, k_outlet = 152.1, sigma_outlet = 3.7712E7, rho_outlet = 2859.9, Cp_outlet_sleeve = 874.8, k_outlet_sleeve = 149.2, sigma_outlet_sleeve = 3.8985E7, rho_outlet_sleeve = 2893.3, Cp_inlet_sleeve = 921.4, k_inlet_sleeve = 156.2, sigma_inlet_sleeve = 3.4358E7, rho_inlet_sleeve = 2597.9) (degC), Point: 60Temperature (Cp_Al = 890.4, k_Al = 151.7, sigma_Al = 3.9564E7, rho_Al = 2875.6, Cp_inlet = 923.9, k_inlet = 162.3, sigma_inlet = 3.3988E7, rho_inlet = 2931.5, Cp_outlet = 972.5, k_outlet = 152.1, sigma_outlet = 3.7712E7, rho_outlet = 2859.9, Cp_outlet_sleeve = 874.8, k_outlet_sleeve = 149.2, sigma_outlet_sleeve = 3.8985E7, rho_outlet_sleeve = 2893.3, Cp_inlet_sleeve = 921.4, k_inlet_sleeve = 156.2, sigma_inlet_sleeve = 3.4358E7, rho_inlet_sleeve = 2597.9) (degC), Point: 69Temperature (Cp_Al = 890.4, k_Al = 151.7, sigma_Al = 3.9564E7, rho_Al = 2875.6, Cp_inlet = 923.9, k_inlet = 162.3, sigma_inlet = 3.3988E7, rho_inlet = 2931.5, Cp_outlet = 972.5, k_outlet = 152.1, sigma_outlet = 3.7712E7, rho_outlet = 2859.9, Cp_outlet_sleeve = 874.8, k_outlet_sleeve = 149.2, sigma_outlet_sleeve = 3.8985E7, rho_outlet_sleeve = 2893.3, Cp_inlet_sleeve = 921.4, k_inlet_sleeve = 156.2, sigma_inlet_sleeve = 3.4358E7, rho_inlet_sleeve = 2597.9) (degC), Point: 90Temperature (Cp_Al = 890.4, k_Al = 151.7, sigma_Al = 3.9564E7, rho_Al = 2875.6, Cp_inlet = 923.9, k_inlet = 162.3, sigma_inlet = 3.3988E7, rho_inlet = 2931.5, Cp_outlet = 972.5, k_outlet = 152.1, sigma_outlet = 3.7712E7, rho_outlet = 2859.9, Cp_outlet_sleeve = 874.8, k_outlet_sleeve = 149.2, sigma_outlet_sleeve = 3.8985E7, rho_outlet_sleeve = 2893.3, Cp_inlet_sleeve = 921.4, k_inlet_sleeve = 156.2, sigma_inlet_sleeve = 3.4358E7, rho_inlet_sleeve = 2597.9) (degC), Point: 98Temperature (Cp_Al = 890.4, k_Al = 151.7, sigma_Al = 3.9564E7, rho_Al = 2875.6, Cp_inlet = 923.9, k_inlet = 162.3, sigma_inlet = 3.3988E7, rho_inlet = 2931.5, Cp_outlet = 972.5, k_outlet = 152.1, sigma_outlet = 3.7712E7, rho_outlet = 2859.9, Cp_outlet_sleeve = 874.8, k_outlet_sleeve = 149.2, sigma_outlet_sleeve = 3.8985E7, rho_outlet_sleeve = 2893.3, Cp_inlet_sleeve = 921.4, k_inlet_sleeve = 156.2, sigma_inlet_sleeve = 3.4358E7, rho_inlet_sleeve = 2597.9) (degC), Point: 102Temperature (Cp_Al = 890.4, k_Al = 151.7, sigma_Al = 3.9564E7, rho_Al = 2875.6, Cp_inlet = 923.9, k_inlet = 162.3, sigma_inlet = 3.3988E7, rho_inlet = 2931.5, Cp_outlet = 972.5, k_outlet = 152.1, sigma_outlet = 3.7712E7, rho_outlet = 2859.9, Cp_outlet_sleeve = 874.8, k_outlet_sleeve = 149.2, sigma_outlet_sleeve = 3.8985E7, rho_outlet_sleeve = 2893.3, Cp_inlet_sleeve = 921.4, k_inlet_sleeve = 156.2, sigma_inlet_sleeve = 3.4358E7, rho_inlet_sleeve = 2597.9) (degC), Point: 127Temperature (Cp_Al = 890.4, k_Al = 151.7, sigma_Al = 3.9564E7, rho_Al = 2875.6, Cp_inlet = 923.9, k_inlet = 162.3, sigma_inlet = 3.3988E7, rho_inlet = 2931.5, Cp_outlet = 972.5, k_outlet = 152.1, sigma_outlet = 3.7712E7, rho_outlet = 2859.9, Cp_outlet_sleeve = 874.8, k_outlet_sleeve = 149.2, sigma_outlet_sleeve = 3.8985E7, rho_outlet_sleeve = 2893.3, Cp_inlet_sleeve = 921.4, k_inlet_sleeve = 156.2, sigma_inlet_sleeve = 3.4358E7, rho_inlet_sleeve = 2597.9) (degC), Point: 128Temperature (Cp_Al = 890.4, k_Al = 151.7, sigma_Al = 3.9564E7, rho_Al = 2875.6, Cp_inlet = 923.9, k_inlet = 162.3, sigma_inlet = 3.3988E7, rho_inlet = 2931.5, Cp_outlet = 972.5, k_outlet = 152.1, sigma_outlet = 3.7712E7, rho_outlet = 2859.9, Cp_outlet_sleeve = 874.8, k_outlet_sleeve = 149.2, sigma_outlet_sleeve = 3.8985E7, rho_outlet_sleeve = 2893.3, Cp_inlet_sleeve = 921.4, k_inlet_sleeve = 156.2, sigma_inlet_sleeve = 3.4358E7, rho_inlet_sleeve = 2597.9) (degC), Point: 134Temperature (Cp_Al = 890.4, k_Al = 151.7, sigma_Al = 3.9564E7, rho_Al = 2875.6, Cp_inlet = 923.9, k_inlet = 162.3, sigma_inlet = 3.3988E7, rho_inlet = 2931.5, Cp_outlet = 972.5, k_outlet = 152.1, sigma_outlet = 3.7712E7, rho_outlet = 2859.9, Cp_outlet_sleeve = 874.8, k_outlet_sleeve = 149.2, sigma_outlet_sleeve = 3.8985E7, rho_outlet_sleeve = 2893.3, Cp_inlet_sleeve = 921.4, k_inlet_sleeve = 156.2, sigma_inlet_sleeve = 3.4358E7, rho_inlet_sleeve = 2597.9) (degC), Point: 138Temperature (Cp_Al = 890.4, k_Al = 151.7, sigma_Al = 3.9564E7, rho_Al = 2875.6, Cp_inlet = 923.9, k_inlet = 162.3, sigma_inlet = 3.3988E7, rho_inlet = 2931.5, Cp_outlet = 972.5, k_outlet = 152.1, sigma_outlet = 3.7712E7, rho_outlet = 2859.9, Cp_outlet_sleeve = 874.8, k_outlet_sleeve = 149.2, sigma_outlet_sleeve = 3.8985E7, rho_outlet_sleeve = 2893.3, Cp_inlet_sleeve = 921.4, k_inlet_sleeve = 156.2, sigma_inlet_sleeve = 3.4358E7, rho_inlet_sleeve = 2597.9) (degC), Point: 151Temperature (Cp_Al = 890.4, k_Al = 151.7, sigma_Al = 3.9564E7, rho_Al = 2875.6, Cp_inlet = 923.9, k_inlet = 162.3, sigma_inlet = 3.3988E7, rho_inlet = 2931.5, Cp_outlet = 972.5, k_outlet = 152.1, sigma_outlet = 3.7712E7, rho_outlet = 2859.9, Cp_outlet_sleeve = 874.8, k_outlet_sleeve = 149.2, sigma_outlet_sleeve = 3.8985E7, rho_outlet_sleeve = 2893.3, Cp_inlet_sleeve = 921.4, k_inlet_sleeve = 156.2, sigma_inlet_sleeve = 3.4358E7, rho_inlet_sleeve = 2597.9) (degC), Point: 154Temperature (Cp_Al = 890.4, k_Al = 151.7, sigma_Al = 3.9564E7, rho_Al = 2875.6, Cp_inlet = 923.9, k_inlet = 162.3, sigma_inlet = 3.3988E7, rho_inlet = 2931.5, Cp_outlet = 972.5, k_outlet = 152.1, sigma_outlet = 3.7712E7, rho_outlet = 2859.9, Cp_outlet_sleeve = 874.8, k_outlet_sleeve = 149.2, sigma_outlet_sleeve = 3.8985E7, rho_outlet_sleeve = 2893.3, Cp_inlet_sleeve = 921.4, k_inlet_sleeve = 156.2, sigma_inlet_sleeve = 3.4358E7, rho_inlet_sleeve = 2597.9) (degC), Point: 159Temperature (Cp_Al = 890.4, k_Al = 151.7, sigma_Al = 3.9564E7, rho_Al = 2875.6, Cp_inlet = 923.9, k_inlet = 162.3, sigma_inlet = 3.3988E7, rho_inlet = 2931.5, Cp_outlet = 972.5, k_outlet = 152.1, sigma_outlet = 3.7712E7, rho_outlet = 2859.9, Cp_outlet_sleeve = 874.8, k_outlet_sleeve = 149.2, sigma_outlet_sleeve = 3.8985E7, rho_outlet_sleeve = 2893.3, Cp_inlet_sleeve = 921.4, k_inlet_sleeve = 156.2, sigma_inlet_sleeve = 3.4358E7, rho_inlet_sleeve = 2597.9) (degC), Point: 163Temperature (Cp_Al = 890.4, k_Al = 151.7, sigma_Al = 3.9564E7, rho_Al = 2875.6, Cp_inlet = 923.9, k_inlet = 162.3, sigma_inlet = 3.3988E7, rho_inlet = 2931.5, Cp_outlet = 972.5, k_outlet = 152.1, sigma_outlet = 3.7712E7, rho_outlet = 2859.9, Cp_outlet_sleeve = 874.8, k_outlet_sleeve = 149.2, sigma_outlet_sleeve = 3.8985E7, rho_outlet_sleeve = 2893.3, Cp_inlet_sleeve = 921.4, k_inlet_sleeve = 156.2, sigma_inlet_sleeve = 3.4358E7, rho_inlet_sleeve = 2597.9) (degC), Point: 167Temperature (Cp_Al = 890.4, k_Al = 151.7, sigma_Al = 3.9564E7, rho_Al = 2875.6, Cp_inlet = 923.9, k_inlet = 162.3, sigma_inlet = 3.3988E7, rho_inlet = 2931.5, Cp_outlet = 972.5, k_outlet = 152.1, sigma_outlet = 3.7712E7, rho_outlet = 2859.9, Cp_outlet_sleeve = 874.8, k_outlet_sleeve = 149.2, sigma_outlet_sleeve = 3.8985E7, rho_outlet_sleeve = 2893.3, Cp_inlet_sleeve = 921.4, k_inlet_sleeve = 156.2, sigma_inlet_sleeve = 3.4358E7, rho_inlet_sleeve = 2597.9) (degC), Point: 168Temperature (Cp_Al = 890.4, k_Al = 151.7, sigma_Al = 3.9564E7, rho_Al = 2875.6, Cp_inlet = 923.9, k_inlet = 162.3, sigma_inlet = 3.3988E7, rho_inlet = 2931.5, Cp_outlet = 972.5, k_outlet = 152.1, sigma_outlet = 3.7712E7, rho_outlet = 2859.9, Cp_outlet_sleeve = 874.8, k_outlet_sleeve = 149.2, sigma_outlet_sleeve = 3.8985E7, rho_outlet_sleeve = 2893.3, Cp_inlet_sleeve = 921.4, k_inlet_sleeve = 156.2, sigma_inlet_sleeve = 3.4358E7, rho_inlet_sleeve = 2597.9) (degC), Point: 172Temperature (Cp_Al = 890.4, k_Al = 151.7, sigma_Al = 3.9564E7, rho_Al = 2875.6, Cp_inlet = 923.9, k_inlet = 162.3, sigma_inlet = 3.3988E7, rho_inlet = 2931.5, Cp_outlet = 972.5, k_outlet = 152.1, sigma_outlet = 3.7712E7, rho_outlet = 2859.9, Cp_outlet_sleeve = 874.8, k_outlet_sleeve = 149.2, sigma_outlet_sleeve = 3.8985E7, rho_outlet_sleeve = 2893.3, Cp_inlet_sleeve = 921.4, k_inlet_sleeve = 156.2, sigma_inlet_sleeve = 3.4358E7, rho_inlet_sleeve = 2597.9) (degC), Point: 181Temperature (Cp_Al = 890.4, k_Al = 151.7, sigma_Al = 3.9564E7, rho_Al = 2875.6, Cp_inlet = 923.9, k_inlet = 162.3, sigma_inlet = 3.3988E7, rho_inlet = 2931.5, Cp_outlet = 972.5, k_outlet = 152.1, sigma_outlet = 3.7712E7, rho_outlet = 2859.9, Cp_outlet_sleeve = 874.8, k_outlet_sleeve = 149.2, sigma_outlet_sleeve = 3.8985E7, rho_outlet_sleeve = 2893.3, Cp_inlet_sleeve = 921.4, k_inlet_sleeve = 156.2, sigma_inlet_sleeve = 3.4358E7, rho_inlet_sleeve = 2597.9) (degC), Point: 201Temperature (Cp_Al = 890.4, k_Al = 151.7, sigma_Al = 3.9564E7, rho_Al = 2875.6, Cp_inlet = 923.9, k_inlet = 162.3, sigma_inlet = 3.3988E7, rho_inlet = 2931.5, Cp_outlet = 972.5, k_outlet = 152.1, sigma_outlet = 3.7712E7, rho_outlet = 2859.9, Cp_outlet_sleeve = 874.8, k_outlet_sleeve = 149.2, sigma_outlet_sleeve = 3.8985E7, rho_outlet_sleeve = 2893.3, Cp_inlet_sleeve = 921.4, k_inlet_sleeve = 156.2, sigma_inlet_sleeve = 3.4358E7, rho_inlet_sleeve = 2597.9) (degC), Point: 210Temperature (Cp_Al = 890.4, k_Al = 151.7, sigma_Al = 3.9564E7, rho_Al = 2875.6, Cp_inlet = 923.9, k_inlet = 162.3, sigma_inlet = 3.3988E7, rho_inlet = 2931.5, Cp_outlet = 972.5, k_outlet = 152.1, sigma_outlet = 3.7712E7, rho_outlet = 2859.9, Cp_outlet_sleeve = 874.8, k_outlet_sleeve = 149.2, sigma_outlet_sleeve = 3.8985E7, rho_outlet_sleeve = 2893.3, Cp_inlet_sleeve = 921.4, k_inlet_sleeve = 156.2, sigma_inlet_sleeve = 3.4358E7, rho_inlet_sleeve = 2597.9) (degC), Point: 213Temperature (Cp_Al = 890.4, k_Al = 151.7, sigma_Al = 3.9564E7, rho_Al = 2875.6, Cp_inlet = 923.9, k_inlet = 162.3, sigma_inlet = 3.3988E7, rho_inlet = 2931.5, Cp_outlet = 972.5, k_outlet = 152.1, sigma_outlet = 3.7712E7, rho_outlet = 2859.9, Cp_outlet_sleeve = 874.8, k_outlet_sleeve = 149.2, sigma_outlet_sleeve = 3.8985E7, rho_outlet_sleeve = 2893.3, Cp_inlet_sleeve = 921.4, k_inlet_sleeve = 156.2, sigma_inlet_sleeve = 3.4358E7, rho_inlet_sleeve = 2597.9) (degC), Point: 215Temperature (Cp_Al = 890.4, k_Al = 151.7, sigma_Al = 3.9564E7, rho_Al = 2875.6, Cp_inlet = 923.9, k_inlet = 162.3, sigma_inlet = 3.3988E7, rho_inlet = 2931.5, Cp_outlet = 972.5, k_outlet = 152.1, sigma_outlet = 3.7712E7, rho_outlet = 2859.9, Cp_outlet_sleeve = 874.8, k_outlet_sleeve = 149.2, sigma_outlet_sleeve = 3.8985E7, rho_outlet_sleeve = 2893.3, Cp_inlet_sleeve = 921.4, k_inlet_sleeve = 156.2, sigma_inlet_sleeve = 3.4358E7, rho_inlet_sleeve = 2597.9) (degC), Point: 229Temperature (Cp_Al = 890.4, k_Al = 151.7, sigma_Al = 3.9564E7, rho_Al = 2875.6, Cp_inlet = 923.9, k_inlet = 162.3, sigma_inlet = 3.3988E7, rho_inlet = 2931.5, Cp_outlet = 972.5, k_outlet = 152.1, sigma_outlet = 3.7712E7, rho_outlet = 2859.9, Cp_outlet_sleeve = 874.8, k_outlet_sleeve = 149.2, sigma_outlet_sleeve = 3.8985E7, rho_outlet_sleeve = 2893.3, Cp_inlet_sleeve = 921.4, k_inlet_sleeve = 156.2, sigma_inlet_sleeve = 3.4358E7, rho_inlet_sleeve = 2597.9) (degC), Point: 232Temperature (Cp_Al = 890.4, k_Al = 151.7, sigma_Al = 3.9564E7, rho_Al = 2875.6, Cp_inlet = 923.9, k_inlet = 162.3, sigma_inlet = 3.3988E7, rho_inlet = 2931.5, Cp_outlet = 972.5, k_outlet = 152.1, sigma_outlet = 3.7712E7, rho_outlet = 2859.9, Cp_outlet_sleeve = 874.8, k_outlet_sleeve = 149.2, sigma_outlet_sleeve = 3.8985E7, rho_outlet_sleeve = 2893.3, Cp_inlet_sleeve = 921.4, k_inlet_sleeve = 156.2, sigma_inlet_sleeve = 3.4358E7, rho_inlet_sleeve = 2597.9) (degC), Point: 239Temperature (Cp_Al = 890.4, k_Al = 151.7, sigma_Al = 3.9564E7, rho_Al = 2875.6, Cp_inlet = 923.9, k_inlet = 162.3, sigma_inlet = 3.3988E7, rho_inlet = 2931.5, Cp_outlet = 972.5, k_outlet = 152.1, sigma_outlet = 3.7712E7, rho_outlet = 2859.9, Cp_outlet_sleeve = 874.8, k_outlet_sleeve = 149.2, sigma_outlet_sleeve = 3.8985E7, rho_outlet_sleeve = 2893.3, Cp_inlet_sleeve = 921.4, k_inlet_sleeve = 156.2, sigma_inlet_sleeve = 3.4358E7, rho_inlet_sleeve = 2597.9) (degC), Point: 252Temperature (Cp_Al = 890.4, k_Al = 151.7, sigma_Al = 3.9564E7, rho_Al = 2875.6, Cp_inlet = 923.9, k_inlet = 162.3, sigma_inlet = 3.3988E7, rho_inlet = 2931.5, Cp_outlet = 972.5, k_outlet = 152.1, sigma_outlet = 3.7712E7, rho_outlet = 2859.9, Cp_outlet_sleeve = 874.8, k_outlet_sleeve = 149.2, sigma_outlet_sleeve = 3.8985E7, rho_outlet_sleeve = 2893.3, Cp_inlet_sleeve = 921.4, k_inlet_sleeve = 156.2, sigma_inlet_sleeve = 3.4358E7, rho_inlet_sleeve = 2597.9) (degC), Point: 261Temperature (Cp_Al = 890.4, k_Al = 151.7, sigma_Al = 3.9564E7, rho_Al = 2875.6, Cp_inlet = 923.9, k_inlet = 162.3, sigma_inlet = 3.3988E7, rho_inlet = 2931.5, Cp_outlet = 972.5, k_outlet = 152.1, sigma_outlet = 3.7712E7, rho_outlet = 2859.9, Cp_outlet_sleeve = 874.8, k_outlet_sleeve = 149.2, sigma_outlet_sleeve = 3.8985E7, rho_outlet_sleeve = 2893.3, Cp_inlet_sleeve = 921.4, k_inlet_sleeve = 156.2, sigma_inlet_sleeve = 3.4358E7, rho_inlet_sleeve = 2597.9) (degC), Point: 270Temperature (Cp_Al = 890.4, k_Al = 151.7, sigma_Al = 3.9564E7, rho_Al = 2875.6, Cp_inlet = 923.9, k_inlet = 162.3, sigma_inlet = 3.3988E7, rho_inlet = 2931.5, Cp_outlet = 972.5, k_outlet = 152.1, sigma_outlet = 3.7712E7, rho_outlet = 2859.9, Cp_outlet_sleeve = 874.8, k_outlet_sleeve = 149.2, sigma_outlet_sleeve = 3.8985E7, rho_outlet_sleeve = 2893.3, Cp_inlet_sleeve = 921.4, k_inlet_sleeve = 156.2, sigma_inlet_sleeve = 3.4358E7, rho_inlet_sleeve = 2597.9) (degC), Point: 273Temperature (Cp_Al = 890.4, k_Al = 151.7, sigma_Al = 3.9564E7, rho_Al = 2875.6, Cp_inlet = 923.9, k_inlet = 162.3, sigma_inlet = 3.3988E7, rho_inlet = 2931.5, Cp_outlet = 972.5, k_outlet = 152.1, sigma_outlet = 3.7712E7, rho_outlet = 2859.9, Cp_outlet_sleeve = 874.8, k_outlet_sleeve = 149.2, sigma_outlet_sleeve = 3.8985E7, rho_outlet_sleeve = 2893.3, Cp_inlet_sleeve = 921.4, k_inlet_sleeve = 156.2, sigma_inlet_sleeve = 3.4358E7, rho_inlet_sleeve = 2597.9) (degC), Point: 275
0                        21.57033158036154        21.01036874255766        21.130470603189792       21.007325535661266       21.01397876358493        21.110136771859857       21.00791998658991        21.023771361722766       21.00150140214032        21.025019003980617       21.001121603846002       21.000588388839617       21.00972960774942        21.00011228560402        21.00717533590648        21.018577860961216       21.000051558325026       21.011405215088416       21.00061615503091        21.0002526172226         21.00174496813247        21.00015172250994        21.00023077067266        21.007894531692443       21.120841938008198       21.013455443081114       21.50874510883824        21.007222540336215       21.14319388933916        21.01351615618853        21.634664628181042
3                        283.58537190923505       246.45384834208664       254.746717191092         249.78834361053373       256.15141636487385       266.4845375413761        263.8108128518596        254.74190142091265       250.57788624889406       259.1247998794812        260.28923381976256       251.87097008025216       250.0206588585695        239.53394793511268       243.90085963064303       212.68140361466857       208.3042131822766        216.5583387538224        217.71135742724732       211.34732692427264       210.7382111733337        204.80999651722016       207.30160955560228       265.86274612329987       269.0054468272273        257.78879778838757       290.197189757022         252.14246367775843       257.35687552578486       246.51997488580673       288.94274640185415
6                        405.10017772133995       366.5356782652741        377.965740586024         373.51873089223307       379.40813885725686       394.7129952259636        393.07909793626266       379.86689926510917       373.6954647873255        387.25848844368693       389.46638295766763       381.0205915864807        378.1297884390792        362.61071044789765       368.9794999672016        333.3033182569484        327.4292825895608        338.97321182361827       340.6647171658211        333.8995485490119        332.80312352440797       323.7298265137583        327.67115700747013       394.93113977715825       397.01036859174917       380.7248745917692        415.15860055730093       373.71812940952304       378.41018327948245       364.2190244649521        408.1787047050992
9                        481.26843468100753       441.7630486098054        455.72062212113804       451.90934503209155       449.82604940019655       468.597670918786         467.9224082255389        451.37951299701206       444.0239829703854        461.0881690511951        464.25772003986003       455.8015585554597        451.95034539205255       432.92509253558455       440.46871771704195       408.61806110888347       401.75970937955833       415.94537081925046       418.29551095652755       411.59955250780115       409.8776095170067        398.2589080768695        403.1540412094005        469.669569252923         470.7676405225599        450.94844358125124       486.5749236842639        450.62598253992235       454.66835386484615       437.78806521485456       482.76191878831014
12                       534.192182813912         494.0243388837366        509.9506252056102        506.70760688416635       496.3893170542102        517.5716456657659        517.6343552402376        498.64079379944417       490.5278104617346        510.0271614489245        513.9369762460244        505.4779465884943        500.88676098865426       479.4234168562789        487.7170110776009        460.9929442999256        453.44035589618215       469.6812367355773        472.61903389277427       465.97345692528006       463.68384580843656       450.0729131098658        455.6404668291477        519.3206028824617        519.662762129594         497.3862169529309        533.7752205758682        504.50897961074213       507.9636090162559        488.98462791643703       534.6742243995742
15                       574.6478232438691        533.9818357397183        551.4729643486276        548.7110594121705        531.4263637543954        554.3831349911544        555.014102085743         534.1697901369375        525.5225840613107        546.8142769347565        551.2941126123394        542.8364701494638        537.6752568234506        514.4175459705115        523.2395827202477        501.07977413957883       493.0059468630094        510.8758098328558        514.3100435809209        507.7237324826482        504.9482233921524        489.7455610055963        495.8199396700013        556.6621986676226        556.4220489188995        532.3372262121384        569.2637504510262        545.9358167063729        548.8886183588841        528.2387471052178        574.4667640082884
18                       606.7104253702631        565.6611915907924        584.4181599101347        582.0657997891296        559.0001298674082        583.2958476138905        584.3729023739469        562.1003517462863        553.0663006315318        575.7101180931705        580.6373817845794        572.1828605328337        566.5740135618579        541.9625898075303        551.1669580351538        532.8916705179648        524.4176778696027        543.6016421159608        547.4577458625591        540.9380616981543        537.745147500867         521.2486099737706        527.7138663729746        585.9975427892789        585.3001575497642        559.8515703233485        597.1670585169047        578.9361204742215        581.4586584711742        559.4551351542009        606.0973501144945
21                       633.4922507525058        592.1356117334           611.9474158527369        609.9486053097803        582.0913557259848        607.4460194689846        608.8860285890378        585.465890632353         576.1356395465906        599.8483422202053        605.1395820615207        596.6886815193769        590.7155497319254        565.0338423512175        574.5307890351326        559.497248489606         550.7031235950022        570.9792749591388        575.199060784843         568.7474908161571        565.1918759128529        547.61322871775          554.3925392336993        610.496102302238         609.4266871546984        582.90042542937          620.5134812166526        606.5995055648556        608.748735097974         585.6165800002177        632.5905954600219
24                       656.848531483523         615.2361737361816        635.9504802751142        634.2615652311931        602.3762674955908        628.6045015127406        630.35003275083          605.9728161824961        596.4042553804042        620.9981974590107        626.595740989821         618.1484845252238        611.8686950691464        585.3044594625902        595.0367160944762        582.7259220297431        573.6662713717872        594.8745158122625        599.4126550769176        593.0266577121246        589.15177779855          570.6452921952753        577.6860085382021        631.9511545451995        630.5686417548881        603.154335721215         641.0065584021308        630.7762589471392        632.5973452870531        608.5002299510363        655.749532079307
27                       677.8871977781931        636.0562121850132        657.5579140913542        656.143830472608         620.8122658237829        647.7847925699992        649.7943925824518        624.5956283632414        614.8278882026214        640.1721625356919        646.0343749089712        637.5906050029723        631.0457814048129        603.730017536501         613.6588961579168        603.669688545608         594.3836957848544        616.4032212168157        621.2233283698893        614.8986170553057        610.7399047412936        591.4231672071571        598.6872997720981        651.3902297660809        649.7371945769735        621.5671898665704        659.619089101936         652.5745420238936        654.1042922483811        629.1667122271931        676.6505407402212
