% Model:              brazing.mph
% Version:            COMSOL 5.3.0.223
% Date:               Oct 23 2018, 13:41
% Table:              Table 3 - 
% Time (s)               Temperature (Cp_Al = 886.7, k_Al = 161, sigma_Al = 3.4522E7, rho_Al = 2723.7, Cp_inlet = 930.5, k_inlet = 170.7, sigma_inlet = 3.9527E7, rho_inlet = 2513.8, Cp_outlet = 841.3, k_outlet = 157.1, sigma_outlet = 3.6939E7, rho_outlet = 2654.8, Cp_outlet_sleeve = 868.9, k_outlet_sleeve = 169.6, sigma_outlet_sleeve = 3.6377E7, rho_outlet_sleeve = 2656.8, Cp_inlet_sleeve = 844.8, k_inlet_sleeve = 171.8, sigma_inlet_sleeve = 3.5272E7, rho_inlet_sleeve = 2568.5) (degC), Point: 55Temperature (Cp_Al = 886.7, k_Al = 161, sigma_Al = 3.4522E7, rho_Al = 2723.7, Cp_inlet = 930.5, k_inlet = 170.7, sigma_inlet = 3.9527E7, rho_inlet = 2513.8, Cp_outlet = 841.3, k_outlet = 157.1, sigma_outlet = 3.6939E7, rho_outlet = 2654.8, Cp_outlet_sleeve = 868.9, k_outlet_sleeve = 169.6, sigma_outlet_sleeve = 3.6377E7, rho_outlet_sleeve = 2656.8, Cp_inlet_sleeve = 844.8, k_inlet_sleeve = 171.8, sigma_inlet_sleeve = 3.5272E7, rho_inlet_sleeve = 2568.5) (degC), Point: 56Temperature (Cp_Al = 886.7, k_Al = 161, sigma_Al = 3.4522E7, rho_Al = 2723.7, Cp_inlet = 930.5, k_inlet = 170.7, sigma_inlet = 3.9527E7, rho_inlet = 2513.8, Cp_outlet = 841.3, k_outlet = 157.1, sigma_outlet = 3.6939E7, rho_outlet = 2654.8, Cp_outlet_sleeve = 868.9, k_outlet_sleeve = 169.6, sigma_outlet_sleeve = 3.6377E7, rho_outlet_sleeve = 2656.8, Cp_inlet_sleeve = 844.8, k_inlet_sleeve = 171.8, sigma_inlet_sleeve = 3.5272E7, rho_inlet_sleeve = 2568.5) (degC), Point: 60Temperature (Cp_Al = 886.7, k_Al = 161, sigma_Al = 3.4522E7, rho_Al = 2723.7, Cp_inlet = 930.5, k_inlet = 170.7, sigma_inlet = 3.9527E7, rho_inlet = 2513.8, Cp_outlet = 841.3, k_outlet = 157.1, sigma_outlet = 3.6939E7, rho_outlet = 2654.8, Cp_outlet_sleeve = 868.9, k_outlet_sleeve = 169.6, sigma_outlet_sleeve = 3.6377E7, rho_outlet_sleeve = 2656.8, Cp_inlet_sleeve = 844.8, k_inlet_sleeve = 171.8, sigma_inlet_sleeve = 3.5272E7, rho_inlet_sleeve = 2568.5) (degC), Point: 69Temperature (Cp_Al = 886.7, k_Al = 161, sigma_Al = 3.4522E7, rho_Al = 2723.7, Cp_inlet = 930.5, k_inlet = 170.7, sigma_inlet = 3.9527E7, rho_inlet = 2513.8, Cp_outlet = 841.3, k_outlet = 157.1, sigma_outlet = 3.6939E7, rho_outlet = 2654.8, Cp_outlet_sleeve = 868.9, k_outlet_sleeve = 169.6, sigma_outlet_sleeve = 3.6377E7, rho_outlet_sleeve = 2656.8, Cp_inlet_sleeve = 844.8, k_inlet_sleeve = 171.8, sigma_inlet_sleeve = 3.5272E7, rho_inlet_sleeve = 2568.5) (degC), Point: 90Temperature (Cp_Al = 886.7, k_Al = 161, sigma_Al = 3.4522E7, rho_Al = 2723.7, Cp_inlet = 930.5, k_inlet = 170.7, sigma_inlet = 3.9527E7, rho_inlet = 2513.8, Cp_outlet = 841.3, k_outlet = 157.1, sigma_outlet = 3.6939E7, rho_outlet = 2654.8, Cp_outlet_sleeve = 868.9, k_outlet_sleeve = 169.6, sigma_outlet_sleeve = 3.6377E7, rho_outlet_sleeve = 2656.8, Cp_inlet_sleeve = 844.8, k_inlet_sleeve = 171.8, sigma_inlet_sleeve = 3.5272E7, rho_inlet_sleeve = 2568.5) (degC), Point: 98Temperature (Cp_Al = 886.7, k_Al = 161, sigma_Al = 3.4522E7, rho_Al = 2723.7, Cp_inlet = 930.5, k_inlet = 170.7, sigma_inlet = 3.9527E7, rho_inlet = 2513.8, Cp_outlet = 841.3, k_outlet = 157.1, sigma_outlet = 3.6939E7, rho_outlet = 2654.8, Cp_outlet_sleeve = 868.9, k_outlet_sleeve = 169.6, sigma_outlet_sleeve = 3.6377E7, rho_outlet_sleeve = 2656.8, Cp_inlet_sleeve = 844.8, k_inlet_sleeve = 171.8, sigma_inlet_sleeve = 3.5272E7, rho_inlet_sleeve = 2568.5) (degC), Point: 102Temperature (Cp_Al = 886.7, k_Al = 161, sigma_Al = 3.4522E7, rho_Al = 2723.7, Cp_inlet = 930.5, k_inlet = 170.7, sigma_inlet = 3.9527E7, rho_inlet = 2513.8, Cp_outlet = 841.3, k_outlet = 157.1, sigma_outlet = 3.6939E7, rho_outlet = 2654.8, Cp_outlet_sleeve = 868.9, k_outlet_sleeve = 169.6, sigma_outlet_sleeve = 3.6377E7, rho_outlet_sleeve = 2656.8, Cp_inlet_sleeve = 844.8, k_inlet_sleeve = 171.8, sigma_inlet_sleeve = 3.5272E7, rho_inlet_sleeve = 2568.5) (degC), Point: 127Temperature (Cp_Al = 886.7, k_Al = 161, sigma_Al = 3.4522E7, rho_Al = 2723.7, Cp_inlet = 930.5, k_inlet = 170.7, sigma_inlet = 3.9527E7, rho_inlet = 2513.8, Cp_outlet = 841.3, k_outlet = 157.1, sigma_outlet = 3.6939E7, rho_outlet = 2654.8, Cp_outlet_sleeve = 868.9, k_outlet_sleeve = 169.6, sigma_outlet_sleeve = 3.6377E7, rho_outlet_sleeve = 2656.8, Cp_inlet_sleeve = 844.8, k_inlet_sleeve = 171.8, sigma_inlet_sleeve = 3.5272E7, rho_inlet_sleeve = 2568.5) (degC), Point: 128Temperature (Cp_Al = 886.7, k_Al = 161, sigma_Al = 3.4522E7, rho_Al = 2723.7, Cp_inlet = 930.5, k_inlet = 170.7, sigma_inlet = 3.9527E7, rho_inlet = 2513.8, Cp_outlet = 841.3, k_outlet = 157.1, sigma_outlet = 3.6939E7, rho_outlet = 2654.8, Cp_outlet_sleeve = 868.9, k_outlet_sleeve = 169.6, sigma_outlet_sleeve = 3.6377E7, rho_outlet_sleeve = 2656.8, Cp_inlet_sleeve = 844.8, k_inlet_sleeve = 171.8, sigma_inlet_sleeve = 3.5272E7, rho_inlet_sleeve = 2568.5) (degC), Point: 134Temperature (Cp_Al = 886.7, k_Al = 161, sigma_Al = 3.4522E7, rho_Al = 2723.7, Cp_inlet = 930.5, k_inlet = 170.7, sigma_inlet = 3.9527E7, rho_inlet = 2513.8, Cp_outlet = 841.3, k_outlet = 157.1, sigma_outlet = 3.6939E7, rho_outlet = 2654.8, Cp_outlet_sleeve = 868.9, k_outlet_sleeve = 169.6, sigma_outlet_sleeve = 3.6377E7, rho_outlet_sleeve = 2656.8, Cp_inlet_sleeve = 844.8, k_inlet_sleeve = 171.8, sigma_inlet_sleeve = 3.5272E7, rho_inlet_sleeve = 2568.5) (degC), Point: 138Temperature (Cp_Al = 886.7, k_Al = 161, sigma_Al = 3.4522E7, rho_Al = 2723.7, Cp_inlet = 930.5, k_inlet = 170.7, sigma_inlet = 3.9527E7, rho_inlet = 2513.8, Cp_outlet = 841.3, k_outlet = 157.1, sigma_outlet = 3.6939E7, rho_outlet = 2654.8, Cp_outlet_sleeve = 868.9, k_outlet_sleeve = 169.6, sigma_outlet_sleeve = 3.6377E7, rho_outlet_sleeve = 2656.8, Cp_inlet_sleeve = 844.8, k_inlet_sleeve = 171.8, sigma_inlet_sleeve = 3.5272E7, rho_inlet_sleeve = 2568.5) (degC), Point: 151Temperature (Cp_Al = 886.7, k_Al = 161, sigma_Al = 3.4522E7, rho_Al = 2723.7, Cp_inlet = 930.5, k_inlet = 170.7, sigma_inlet = 3.9527E7, rho_inlet = 2513.8, Cp_outlet = 841.3, k_outlet = 157.1, sigma_outlet = 3.6939E7, rho_outlet = 2654.8, Cp_outlet_sleeve = 868.9, k_outlet_sleeve = 169.6, sigma_outlet_sleeve = 3.6377E7, rho_outlet_sleeve = 2656.8, Cp_inlet_sleeve = 844.8, k_inlet_sleeve = 171.8, sigma_inlet_sleeve = 3.5272E7, rho_inlet_sleeve = 2568.5) (degC), Point: 154Temperature (Cp_Al = 886.7, k_Al = 161, sigma_Al = 3.4522E7, rho_Al = 2723.7, Cp_inlet = 930.5, k_inlet = 170.7, sigma_inlet = 3.9527E7, rho_inlet = 2513.8, Cp_outlet = 841.3, k_outlet = 157.1, sigma_outlet = 3.6939E7, rho_outlet = 2654.8, Cp_outlet_sleeve = 868.9, k_outlet_sleeve = 169.6, sigma_outlet_sleeve = 3.6377E7, rho_outlet_sleeve = 2656.8, Cp_inlet_sleeve = 844.8, k_inlet_sleeve = 171.8, sigma_inlet_sleeve = 3.5272E7, rho_inlet_sleeve = 2568.5) (degC), Point: 159Temperature (Cp_Al = 886.7, k_Al = 161, sigma_Al = 3.4522E7, rho_Al = 2723.7, Cp_inlet = 930.5, k_inlet = 170.7, sigma_inlet = 3.9527E7, rho_inlet = 2513.8, Cp_outlet = 841.3, k_outlet = 157.1, sigma_outlet = 3.6939E7, rho_outlet = 2654.8, Cp_outlet_sleeve = 868.9, k_outlet_sleeve = 169.6, sigma_outlet_sleeve = 3.6377E7, rho_outlet_sleeve = 2656.8, Cp_inlet_sleeve = 844.8, k_inlet_sleeve = 171.8, sigma_inlet_sleeve = 3.5272E7, rho_inlet_sleeve = 2568.5) (degC), Point: 163Temperature (Cp_Al = 886.7, k_Al = 161, sigma_Al = 3.4522E7, rho_Al = 2723.7, Cp_inlet = 930.5, k_inlet = 170.7, sigma_inlet = 3.9527E7, rho_inlet = 2513.8, Cp_outlet = 841.3, k_outlet = 157.1, sigma_outlet = 3.6939E7, rho_outlet = 2654.8, Cp_outlet_sleeve = 868.9, k_outlet_sleeve = 169.6, sigma_outlet_sleeve = 3.6377E7, rho_outlet_sleeve = 2656.8, Cp_inlet_sleeve = 844.8, k_inlet_sleeve = 171.8, sigma_inlet_sleeve = 3.5272E7, rho_inlet_sleeve = 2568.5) (degC), Point: 167Temperature (Cp_Al = 886.7, k_Al = 161, sigma_Al = 3.4522E7, rho_Al = 2723.7, Cp_inlet = 930.5, k_inlet = 170.7, sigma_inlet = 3.9527E7, rho_inlet = 2513.8, Cp_outlet = 841.3, k_outlet = 157.1, sigma_outlet = 3.6939E7, rho_outlet = 2654.8, Cp_outlet_sleeve = 868.9, k_outlet_sleeve = 169.6, sigma_outlet_sleeve = 3.6377E7, rho_outlet_sleeve = 2656.8, Cp_inlet_sleeve = 844.8, k_inlet_sleeve = 171.8, sigma_inlet_sleeve = 3.5272E7, rho_inlet_sleeve = 2568.5) (degC), Point: 168Temperature (Cp_Al = 886.7, k_Al = 161, sigma_Al = 3.4522E7, rho_Al = 2723.7, Cp_inlet = 930.5, k_inlet = 170.7, sigma_inlet = 3.9527E7, rho_inlet = 2513.8, Cp_outlet = 841.3, k_outlet = 157.1, sigma_outlet = 3.6939E7, rho_outlet = 2654.8, Cp_outlet_sleeve = 868.9, k_outlet_sleeve = 169.6, sigma_outlet_sleeve = 3.6377E7, rho_outlet_sleeve = 2656.8, Cp_inlet_sleeve = 844.8, k_inlet_sleeve = 171.8, sigma_inlet_sleeve = 3.5272E7, rho_inlet_sleeve = 2568.5) (degC), Point: 172Temperature (Cp_Al = 886.7, k_Al = 161, sigma_Al = 3.4522E7, rho_Al = 2723.7, Cp_inlet = 930.5, k_inlet = 170.7, sigma_inlet = 3.9527E7, rho_inlet = 2513.8, Cp_outlet = 841.3, k_outlet = 157.1, sigma_outlet = 3.6939E7, rho_outlet = 2654.8, Cp_outlet_sleeve = 868.9, k_outlet_sleeve = 169.6, sigma_outlet_sleeve = 3.6377E7, rho_outlet_sleeve = 2656.8, Cp_inlet_sleeve = 844.8, k_inlet_sleeve = 171.8, sigma_inlet_sleeve = 3.5272E7, rho_inlet_sleeve = 2568.5) (degC), Point: 181Temperature (Cp_Al = 886.7, k_Al = 161, sigma_Al = 3.4522E7, rho_Al = 2723.7, Cp_inlet = 930.5, k_inlet = 170.7, sigma_inlet = 3.9527E7, rho_inlet = 2513.8, Cp_outlet = 841.3, k_outlet = 157.1, sigma_outlet = 3.6939E7, rho_outlet = 2654.8, Cp_outlet_sleeve = 868.9, k_outlet_sleeve = 169.6, sigma_outlet_sleeve = 3.6377E7, rho_outlet_sleeve = 2656.8, Cp_inlet_sleeve = 844.8, k_inlet_sleeve = 171.8, sigma_inlet_sleeve = 3.5272E7, rho_inlet_sleeve = 2568.5) (degC), Point: 201Temperature (Cp_Al = 886.7, k_Al = 161, sigma_Al = 3.4522E7, rho_Al = 2723.7, Cp_inlet = 930.5, k_inlet = 170.7, sigma_inlet = 3.9527E7, rho_inlet = 2513.8, Cp_outlet = 841.3, k_outlet = 157.1, sigma_outlet = 3.6939E7, rho_outlet = 2654.8, Cp_outlet_sleeve = 868.9, k_outlet_sleeve = 169.6, sigma_outlet_sleeve = 3.6377E7, rho_outlet_sleeve = 2656.8, Cp_inlet_sleeve = 844.8, k_inlet_sleeve = 171.8, sigma_inlet_sleeve = 3.5272E7, rho_inlet_sleeve = 2568.5) (degC), Point: 210Temperature (Cp_Al = 886.7, k_Al = 161, sigma_Al = 3.4522E7, rho_Al = 2723.7, Cp_inlet = 930.5, k_inlet = 170.7, sigma_inlet = 3.9527E7, rho_inlet = 2513.8, Cp_outlet = 841.3, k_outlet = 157.1, sigma_outlet = 3.6939E7, rho_outlet = 2654.8, Cp_outlet_sleeve = 868.9, k_outlet_sleeve = 169.6, sigma_outlet_sleeve = 3.6377E7, rho_outlet_sleeve = 2656.8, Cp_inlet_sleeve = 844.8, k_inlet_sleeve = 171.8, sigma_inlet_sleeve = 3.5272E7, rho_inlet_sleeve = 2568.5) (degC), Point: 213Temperature (Cp_Al = 886.7, k_Al = 161, sigma_Al = 3.4522E7, rho_Al = 2723.7, Cp_inlet = 930.5, k_inlet = 170.7, sigma_inlet = 3.9527E7, rho_inlet = 2513.8, Cp_outlet = 841.3, k_outlet = 157.1, sigma_outlet = 3.6939E7, rho_outlet = 2654.8, Cp_outlet_sleeve = 868.9, k_outlet_sleeve = 169.6, sigma_outlet_sleeve = 3.6377E7, rho_outlet_sleeve = 2656.8, Cp_inlet_sleeve = 844.8, k_inlet_sleeve = 171.8, sigma_inlet_sleeve = 3.5272E7, rho_inlet_sleeve = 2568.5) (degC), Point: 215Temperature (Cp_Al = 886.7, k_Al = 161, sigma_Al = 3.4522E7, rho_Al = 2723.7, Cp_inlet = 930.5, k_inlet = 170.7, sigma_inlet = 3.9527E7, rho_inlet = 2513.8, Cp_outlet = 841.3, k_outlet = 157.1, sigma_outlet = 3.6939E7, rho_outlet = 2654.8, Cp_outlet_sleeve = 868.9, k_outlet_sleeve = 169.6, sigma_outlet_sleeve = 3.6377E7, rho_outlet_sleeve = 2656.8, Cp_inlet_sleeve = 844.8, k_inlet_sleeve = 171.8, sigma_inlet_sleeve = 3.5272E7, rho_inlet_sleeve = 2568.5) (degC), Point: 229Temperature (Cp_Al = 886.7, k_Al = 161, sigma_Al = 3.4522E7, rho_Al = 2723.7, Cp_inlet = 930.5, k_inlet = 170.7, sigma_inlet = 3.9527E7, rho_inlet = 2513.8, Cp_outlet = 841.3, k_outlet = 157.1, sigma_outlet = 3.6939E7, rho_outlet = 2654.8, Cp_outlet_sleeve = 868.9, k_outlet_sleeve = 169.6, sigma_outlet_sleeve = 3.6377E7, rho_outlet_sleeve = 2656.8, Cp_inlet_sleeve = 844.8, k_inlet_sleeve = 171.8, sigma_inlet_sleeve = 3.5272E7, rho_inlet_sleeve = 2568.5) (degC), Point: 232Temperature (Cp_Al = 886.7, k_Al = 161, sigma_Al = 3.4522E7, rho_Al = 2723.7, Cp_inlet = 930.5, k_inlet = 170.7, sigma_inlet = 3.9527E7, rho_inlet = 2513.8, Cp_outlet = 841.3, k_outlet = 157.1, sigma_outlet = 3.6939E7, rho_outlet = 2654.8, Cp_outlet_sleeve = 868.9, k_outlet_sleeve = 169.6, sigma_outlet_sleeve = 3.6377E7, rho_outlet_sleeve = 2656.8, Cp_inlet_sleeve = 844.8, k_inlet_sleeve = 171.8, sigma_inlet_sleeve = 3.5272E7, rho_inlet_sleeve = 2568.5) (degC), Point: 239Temperature (Cp_Al = 886.7, k_Al = 161, sigma_Al = 3.4522E7, rho_Al = 2723.7, Cp_inlet = 930.5, k_inlet = 170.7, sigma_inlet = 3.9527E7, rho_inlet = 2513.8, Cp_outlet = 841.3, k_outlet = 157.1, sigma_outlet = 3.6939E7, rho_outlet = 2654.8, Cp_outlet_sleeve = 868.9, k_outlet_sleeve = 169.6, sigma_outlet_sleeve = 3.6377E7, rho_outlet_sleeve = 2656.8, Cp_inlet_sleeve = 844.8, k_inlet_sleeve = 171.8, sigma_inlet_sleeve = 3.5272E7, rho_inlet_sleeve = 2568.5) (degC), Point: 252Temperature (Cp_Al = 886.7, k_Al = 161, sigma_Al = 3.4522E7, rho_Al = 2723.7, Cp_inlet = 930.5, k_inlet = 170.7, sigma_inlet = 3.9527E7, rho_inlet = 2513.8, Cp_outlet = 841.3, k_outlet = 157.1, sigma_outlet = 3.6939E7, rho_outlet = 2654.8, Cp_outlet_sleeve = 868.9, k_outlet_sleeve = 169.6, sigma_outlet_sleeve = 3.6377E7, rho_outlet_sleeve = 2656.8, Cp_inlet_sleeve = 844.8, k_inlet_sleeve = 171.8, sigma_inlet_sleeve = 3.5272E7, rho_inlet_sleeve = 2568.5) (degC), Point: 261Temperature (Cp_Al = 886.7, k_Al = 161, sigma_Al = 3.4522E7, rho_Al = 2723.7, Cp_inlet = 930.5, k_inlet = 170.7, sigma_inlet = 3.9527E7, rho_inlet = 2513.8, Cp_outlet = 841.3, k_outlet = 157.1, sigma_outlet = 3.6939E7, rho_outlet = 2654.8, Cp_outlet_sleeve = 868.9, k_outlet_sleeve = 169.6, sigma_outlet_sleeve = 3.6377E7, rho_outlet_sleeve = 2656.8, Cp_inlet_sleeve = 844.8, k_inlet_sleeve = 171.8, sigma_inlet_sleeve = 3.5272E7, rho_inlet_sleeve = 2568.5) (degC), Point: 270Temperature (Cp_Al = 886.7, k_Al = 161, sigma_Al = 3.4522E7, rho_Al = 2723.7, Cp_inlet = 930.5, k_inlet = 170.7, sigma_inlet = 3.9527E7, rho_inlet = 2513.8, Cp_outlet = 841.3, k_outlet = 157.1, sigma_outlet = 3.6939E7, rho_outlet = 2654.8, Cp_outlet_sleeve = 868.9, k_outlet_sleeve = 169.6, sigma_outlet_sleeve = 3.6377E7, rho_outlet_sleeve = 2656.8, Cp_inlet_sleeve = 844.8, k_inlet_sleeve = 171.8, sigma_inlet_sleeve = 3.5272E7, rho_inlet_sleeve = 2568.5) (degC), Point: 273Temperature (Cp_Al = 886.7, k_Al = 161, sigma_Al = 3.4522E7, rho_Al = 2723.7, Cp_inlet = 930.5, k_inlet = 170.7, sigma_inlet = 3.9527E7, rho_inlet = 2513.8, Cp_outlet = 841.3, k_outlet = 157.1, sigma_outlet = 3.6939E7, rho_outlet = 2654.8, Cp_outlet_sleeve = 868.9, k_outlet_sleeve = 169.6, sigma_outlet_sleeve = 3.6377E7, rho_outlet_sleeve = 2656.8, Cp_inlet_sleeve = 844.8, k_inlet_sleeve = 171.8, sigma_inlet_sleeve = 3.5272E7, rho_inlet_sleeve = 2568.5) (degC), Point: 275
0                        21.59886876988776        21.011711840646967       21.13169134162797        21.008552863883608       21.01529737251832        21.10860227986541        21.008290309588347       21.026043089291704       21.001649101125565       21.024617423182008       21.001180875697003       21.000633617212486       21.009600821804042       21.000118560143733       21.00786652961142        21.0195765735167         21.000052565103488       21.0115161709806         21.000720207799645       21.0002913104139         21.001766023633593       21.000161706448978       21.000249226698145       21.008298917225375       21.119166357924314       21.014719271860827       21.55925698298745        21.008446240521437       21.14455482161435        21.014778440745147       21.666219483640532
3                        297.1971913116431        264.14074433328415       274.34759095483287       269.9205034537712        264.10898262629735       274.8568544114461        272.3618778476922        263.0722815329482        258.92462209791677       267.7255917647293        269.01816247415456       261.24062294218015       259.26856220650325       248.7140303864154        253.04122942638037       232.63770698700688       228.18873920058684       237.48770106212424       239.12991970986354       232.85337917707557       231.76731202548876       224.84972753741516       227.61247554895476       274.21039729010624       277.1621647468587        265.532371122506         295.46444474938494       271.51878683595453       276.20116550905743       263.4527460708822        301.2363911800302
6                        417.0036964030287        382.4921792480501        396.3146799168936        392.5945956162359        379.40221341856466       395.1913296276024        393.83109548808966       380.0918010039344        374.07397407019903       387.96565558010127       390.39782295279963       382.5965055939539        379.4877047161531        363.8308975863531        370.02001902388236       351.27257687438646       345.30204287016124       358.39061120122346       360.7738641622117        354.3743572758375        352.6027060044056        342.05560903083983       346.290274044929         395.48728507195744       397.27660985376303       380.5036414070686        412.32292601056133       391.8888060548536        395.84558008466445       379.2435741834844        418.59075671015796
9                        487.44159064512326       452.05908345710384       468.49615635119903       465.4984203708541        442.2431818337416        461.25228193547173       460.8329415827401        443.85921840474225       436.82668234208404       453.9733663110668        457.350052161535         449.5437037262768        445.49131792937055       426.5769227232081        433.77146532815937       420.8746090418224        413.9890517535997        429.8163585296887        432.9506452832578        426.6669837173599        424.17508279443325       410.982189999939         416.1019434033507        462.393872038169         463.21886809530974       443.15999820087234       476.0021034097199        463.4293756376785        466.63600890803605       447.23658824289987       487.528863473794
12                       535.5658223758921        499.59615089978115       517.9636830631007        515.5644551322744        484.0471494231341        505.20676154695514       505.47402700055886       486.23580068652757       478.57418071197026       497.8948474839915        501.9606962596338        494.15596517771723       489.414547722989         468.3244695677681        476.1413926072945        468.5020935256713        460.9998869069574        478.84338770779357       482.5976323139646        476.40669297418333       473.30871218566074       458.14782664949655       463.8663916905415        506.98233886926573       507.10326394603146       484.85007460964243       518.3260212347245        512.7358335935443        515.3140186490106        493.84237566898287       534.7734895251779
15                       572.0551333763773        535.6555642824113        555.5193260478479        553.6133470867262        515.6467234066873        538.3528650362182        539.1369728751572        518.2302986593277        510.1358172888823        531.0193517879385        535.6038648344665        527.8026648028616        522.5423860008351        499.8879144851709        508.1327919623335        504.67607774742646       496.7236560869086        516.1242892782017        520.3880404217147        514.2878083870482        510.68515253795704       493.9899427895176        500.14829342788414       540.6143001389357        540.2051454850236        516.3748570855585        550.286673387153         550.3498958181148        552.4063602087122        529.3259129631759        570.7247173000561
18                       601.1954714730128        564.4688863880571        585.5290794349556        584.0369511899563        540.9524282064209        564.8171807964949        566.0043151175963        543.8209377822495        535.4157873916978        557.4694867294718        562.4583260839079        554.6612878345724        548.9963173778798        525.1702740663931        533.7221008978894        533.6130886127708        525.3194030138889        545.9607457876288        550.6509724850285        544.6371153910625        540.607873192477         522.6803645089302        529.1739663274761        567.4639960805442        566.6415249219848        541.630946466507         575.8552841503766        580.5334551933387        582.1500401987548        557.7827592835598        599.5366969454383
21                       626.0555293867067        589.0656274470571        611.1216197039074        609.9841131489477        562.7134052836352        587.5032407301736        589.0206830393643        565.8042269227831        557.1585987992667        580.1458812711664        585.4659724038733        577.6730501854095        571.6764066474819        546.9154683614292        555.7047960140769        558.3343764454391        549.766952511795         571.4376098783673        576.492546329997         570.5579568097671        566.1617498390247        547.2065483963434        553.9701707806272        590.470291227618         589.3092039030973        563.3575634679331        597.8235064665497        606.3455591973997        607.5845288043621        582.1479290281061        624.186717407386
24                       648.2360366147416        611.0260502662238        633.9318569638818        633.1021694761898        582.3194252727563        607.8816510504238        609.6795253621436        585.5934774551142        576.7513993221725        600.517523484827         606.118740190657         598.3296761153728        592.0514835117871        566.5104984014773        575.4937897927729        580.4157742226889        571.6203943400162        594.1669664601666        599.5379238590904        593.6744483187298        588.9591975000709        569.1267293223694        576.1157922079449        611.1236130875573        609.6751947350915        582.9390469900649        617.6020873959899        629.3873385976457        630.2985934764899        603.9520150225829        646.2276919700956
27                       668.6200782698015        631.2221161010616        654.8630322656844        654.3021695516244        600.5263385998558        626.7517550887029        628.7929344541353        603.9566425802561        594.9484092490894        619.3827605457499        625.2277997956598        617.4422702862555        610.9198549880217        584.7095539493785        593.8568638138273        600.7260357165177        591.7365641187656        615.0390576365877        620.685601262325         614.8852198153386        609.8912495492256        589.3003977432753        596.4816888888561        630.2342649359979        628.5366967277399        601.1279320888859        635.9574589770558        650.5444182778513        651.1698023804536        624.0385245287882        666.5155194843555
