% Model:              brazing.mph
% Version:            COMSOL 5.3.0.223
% Date:               Oct 23 2018, 13:24
% Table:              Table 3 - 
% Time (s)               Temperature (Cp_Al = 904.7, k_Al = 150.9, sigma_Al = 4.1017E7, rho_Al = 2727.1, Cp_inlet = 886.8, k_inlet = 159.1, sigma_inlet = 3.8198E7, rho_inlet = 2616.6, Cp_outlet = 889.5, k_outlet = 169.5, sigma_outlet = 3.4793E7, rho_outlet = 2936.3, Cp_outlet_sleeve = 865.6, k_outlet_sleeve = 146.7, sigma_outlet_sleeve = 4.0197E7, rho_outlet_sleeve = 2687.2, Cp_inlet_sleeve = 842.1, k_inlet_sleeve = 173.8, sigma_inlet_sleeve = 3.7932E7, rho_inlet_sleeve = 2501.4) (degC), Point: 55Temperature (Cp_Al = 904.7, k_Al = 150.9, sigma_Al = 4.1017E7, rho_Al = 2727.1, Cp_inlet = 886.8, k_inlet = 159.1, sigma_inlet = 3.8198E7, rho_inlet = 2616.6, Cp_outlet = 889.5, k_outlet = 169.5, sigma_outlet = 3.4793E7, rho_outlet = 2936.3, Cp_outlet_sleeve = 865.6, k_outlet_sleeve = 146.7, sigma_outlet_sleeve = 4.0197E7, rho_outlet_sleeve = 2687.2, Cp_inlet_sleeve = 842.1, k_inlet_sleeve = 173.8, sigma_inlet_sleeve = 3.7932E7, rho_inlet_sleeve = 2501.4) (degC), Point: 56Temperature (Cp_Al = 904.7, k_Al = 150.9, sigma_Al = 4.1017E7, rho_Al = 2727.1, Cp_inlet = 886.8, k_inlet = 159.1, sigma_inlet = 3.8198E7, rho_inlet = 2616.6, Cp_outlet = 889.5, k_outlet = 169.5, sigma_outlet = 3.4793E7, rho_outlet = 2936.3, Cp_outlet_sleeve = 865.6, k_outlet_sleeve = 146.7, sigma_outlet_sleeve = 4.0197E7, rho_outlet_sleeve = 2687.2, Cp_inlet_sleeve = 842.1, k_inlet_sleeve = 173.8, sigma_inlet_sleeve = 3.7932E7, rho_inlet_sleeve = 2501.4) (degC), Point: 60Temperature (Cp_Al = 904.7, k_Al = 150.9, sigma_Al = 4.1017E7, rho_Al = 2727.1, Cp_inlet = 886.8, k_inlet = 159.1, sigma_inlet = 3.8198E7, rho_inlet = 2616.6, Cp_outlet = 889.5, k_outlet = 169.5, sigma_outlet = 3.4793E7, rho_outlet = 2936.3, Cp_outlet_sleeve = 865.6, k_outlet_sleeve = 146.7, sigma_outlet_sleeve = 4.0197E7, rho_outlet_sleeve = 2687.2, Cp_inlet_sleeve = 842.1, k_inlet_sleeve = 173.8, sigma_inlet_sleeve = 3.7932E7, rho_inlet_sleeve = 2501.4) (degC), Point: 69Temperature (Cp_Al = 904.7, k_Al = 150.9, sigma_Al = 4.1017E7, rho_Al = 2727.1, Cp_inlet = 886.8, k_inlet = 159.1, sigma_inlet = 3.8198E7, rho_inlet = 2616.6, Cp_outlet = 889.5, k_outlet = 169.5, sigma_outlet = 3.4793E7, rho_outlet = 2936.3, Cp_outlet_sleeve = 865.6, k_outlet_sleeve = 146.7, sigma_outlet_sleeve = 4.0197E7, rho_outlet_sleeve = 2687.2, Cp_inlet_sleeve = 842.1, k_inlet_sleeve = 173.8, sigma_inlet_sleeve = 3.7932E7, rho_inlet_sleeve = 2501.4) (degC), Point: 90Temperature (Cp_Al = 904.7, k_Al = 150.9, sigma_Al = 4.1017E7, rho_Al = 2727.1, Cp_inlet = 886.8, k_inlet = 159.1, sigma_inlet = 3.8198E7, rho_inlet = 2616.6, Cp_outlet = 889.5, k_outlet = 169.5, sigma_outlet = 3.4793E7, rho_outlet = 2936.3, Cp_outlet_sleeve = 865.6, k_outlet_sleeve = 146.7, sigma_outlet_sleeve = 4.0197E7, rho_outlet_sleeve = 2687.2, Cp_inlet_sleeve = 842.1, k_inlet_sleeve = 173.8, sigma_inlet_sleeve = 3.7932E7, rho_inlet_sleeve = 2501.4) (degC), Point: 98Temperature (Cp_Al = 904.7, k_Al = 150.9, sigma_Al = 4.1017E7, rho_Al = 2727.1, Cp_inlet = 886.8, k_inlet = 159.1, sigma_inlet = 3.8198E7, rho_inlet = 2616.6, Cp_outlet = 889.5, k_outlet = 169.5, sigma_outlet = 3.4793E7, rho_outlet = 2936.3, Cp_outlet_sleeve = 865.6, k_outlet_sleeve = 146.7, sigma_outlet_sleeve = 4.0197E7, rho_outlet_sleeve = 2687.2, Cp_inlet_sleeve = 842.1, k_inlet_sleeve = 173.8, sigma_inlet_sleeve = 3.7932E7, rho_inlet_sleeve = 2501.4) (degC), Point: 102Temperature (Cp_Al = 904.7, k_Al = 150.9, sigma_Al = 4.1017E7, rho_Al = 2727.1, Cp_inlet = 886.8, k_inlet = 159.1, sigma_inlet = 3.8198E7, rho_inlet = 2616.6, Cp_outlet = 889.5, k_outlet = 169.5, sigma_outlet = 3.4793E7, rho_outlet = 2936.3, Cp_outlet_sleeve = 865.6, k_outlet_sleeve = 146.7, sigma_outlet_sleeve = 4.0197E7, rho_outlet_sleeve = 2687.2, Cp_inlet_sleeve = 842.1, k_inlet_sleeve = 173.8, sigma_inlet_sleeve = 3.7932E7, rho_inlet_sleeve = 2501.4) (degC), Point: 127Temperature (Cp_Al = 904.7, k_Al = 150.9, sigma_Al = 4.1017E7, rho_Al = 2727.1, Cp_inlet = 886.8, k_inlet = 159.1, sigma_inlet = 3.8198E7, rho_inlet = 2616.6, Cp_outlet = 889.5, k_outlet = 169.5, sigma_outlet = 3.4793E7, rho_outlet = 2936.3, Cp_outlet_sleeve = 865.6, k_outlet_sleeve = 146.7, sigma_outlet_sleeve = 4.0197E7, rho_outlet_sleeve = 2687.2, Cp_inlet_sleeve = 842.1, k_inlet_sleeve = 173.8, sigma_inlet_sleeve = 3.7932E7, rho_inlet_sleeve = 2501.4) (degC), Point: 128Temperature (Cp_Al = 904.7, k_Al = 150.9, sigma_Al = 4.1017E7, rho_Al = 2727.1, Cp_inlet = 886.8, k_inlet = 159.1, sigma_inlet = 3.8198E7, rho_inlet = 2616.6, Cp_outlet = 889.5, k_outlet = 169.5, sigma_outlet = 3.4793E7, rho_outlet = 2936.3, Cp_outlet_sleeve = 865.6, k_outlet_sleeve = 146.7, sigma_outlet_sleeve = 4.0197E7, rho_outlet_sleeve = 2687.2, Cp_inlet_sleeve = 842.1, k_inlet_sleeve = 173.8, sigma_inlet_sleeve = 3.7932E7, rho_inlet_sleeve = 2501.4) (degC), Point: 134Temperature (Cp_Al = 904.7, k_Al = 150.9, sigma_Al = 4.1017E7, rho_Al = 2727.1, Cp_inlet = 886.8, k_inlet = 159.1, sigma_inlet = 3.8198E7, rho_inlet = 2616.6, Cp_outlet = 889.5, k_outlet = 169.5, sigma_outlet = 3.4793E7, rho_outlet = 2936.3, Cp_outlet_sleeve = 865.6, k_outlet_sleeve = 146.7, sigma_outlet_sleeve = 4.0197E7, rho_outlet_sleeve = 2687.2, Cp_inlet_sleeve = 842.1, k_inlet_sleeve = 173.8, sigma_inlet_sleeve = 3.7932E7, rho_inlet_sleeve = 2501.4) (degC), Point: 138Temperature (Cp_Al = 904.7, k_Al = 150.9, sigma_Al = 4.1017E7, rho_Al = 2727.1, Cp_inlet = 886.8, k_inlet = 159.1, sigma_inlet = 3.8198E7, rho_inlet = 2616.6, Cp_outlet = 889.5, k_outlet = 169.5, sigma_outlet = 3.4793E7, rho_outlet = 2936.3, Cp_outlet_sleeve = 865.6, k_outlet_sleeve = 146.7, sigma_outlet_sleeve = 4.0197E7, rho_outlet_sleeve = 2687.2, Cp_inlet_sleeve = 842.1, k_inlet_sleeve = 173.8, sigma_inlet_sleeve = 3.7932E7, rho_inlet_sleeve = 2501.4) (degC), Point: 151Temperature (Cp_Al = 904.7, k_Al = 150.9, sigma_Al = 4.1017E7, rho_Al = 2727.1, Cp_inlet = 886.8, k_inlet = 159.1, sigma_inlet = 3.8198E7, rho_inlet = 2616.6, Cp_outlet = 889.5, k_outlet = 169.5, sigma_outlet = 3.4793E7, rho_outlet = 2936.3, Cp_outlet_sleeve = 865.6, k_outlet_sleeve = 146.7, sigma_outlet_sleeve = 4.0197E7, rho_outlet_sleeve = 2687.2, Cp_inlet_sleeve = 842.1, k_inlet_sleeve = 173.8, sigma_inlet_sleeve = 3.7932E7, rho_inlet_sleeve = 2501.4) (degC), Point: 154Temperature (Cp_Al = 904.7, k_Al = 150.9, sigma_Al = 4.1017E7, rho_Al = 2727.1, Cp_inlet = 886.8, k_inlet = 159.1, sigma_inlet = 3.8198E7, rho_inlet = 2616.6, Cp_outlet = 889.5, k_outlet = 169.5, sigma_outlet = 3.4793E7, rho_outlet = 2936.3, Cp_outlet_sleeve = 865.6, k_outlet_sleeve = 146.7, sigma_outlet_sleeve = 4.0197E7, rho_outlet_sleeve = 2687.2, Cp_inlet_sleeve = 842.1, k_inlet_sleeve = 173.8, sigma_inlet_sleeve = 3.7932E7, rho_inlet_sleeve = 2501.4) (degC), Point: 159Temperature (Cp_Al = 904.7, k_Al = 150.9, sigma_Al = 4.1017E7, rho_Al = 2727.1, Cp_inlet = 886.8, k_inlet = 159.1, sigma_inlet = 3.8198E7, rho_inlet = 2616.6, Cp_outlet = 889.5, k_outlet = 169.5, sigma_outlet = 3.4793E7, rho_outlet = 2936.3, Cp_outlet_sleeve = 865.6, k_outlet_sleeve = 146.7, sigma_outlet_sleeve = 4.0197E7, rho_outlet_sleeve = 2687.2, Cp_inlet_sleeve = 842.1, k_inlet_sleeve = 173.8, sigma_inlet_sleeve = 3.7932E7, rho_inlet_sleeve = 2501.4) (degC), Point: 163Temperature (Cp_Al = 904.7, k_Al = 150.9, sigma_Al = 4.1017E7, rho_Al = 2727.1, Cp_inlet = 886.8, k_inlet = 159.1, sigma_inlet = 3.8198E7, rho_inlet = 2616.6, Cp_outlet = 889.5, k_outlet = 169.5, sigma_outlet = 3.4793E7, rho_outlet = 2936.3, Cp_outlet_sleeve = 865.6, k_outlet_sleeve = 146.7, sigma_outlet_sleeve = 4.0197E7, rho_outlet_sleeve = 2687.2, Cp_inlet_sleeve = 842.1, k_inlet_sleeve = 173.8, sigma_inlet_sleeve = 3.7932E7, rho_inlet_sleeve = 2501.4) (degC), Point: 167Temperature (Cp_Al = 904.7, k_Al = 150.9, sigma_Al = 4.1017E7, rho_Al = 2727.1, Cp_inlet = 886.8, k_inlet = 159.1, sigma_inlet = 3.8198E7, rho_inlet = 2616.6, Cp_outlet = 889.5, k_outlet = 169.5, sigma_outlet = 3.4793E7, rho_outlet = 2936.3, Cp_outlet_sleeve = 865.6, k_outlet_sleeve = 146.7, sigma_outlet_sleeve = 4.0197E7, rho_outlet_sleeve = 2687.2, Cp_inlet_sleeve = 842.1, k_inlet_sleeve = 173.8, sigma_inlet_sleeve = 3.7932E7, rho_inlet_sleeve = 2501.4) (degC), Point: 168Temperature (Cp_Al = 904.7, k_Al = 150.9, sigma_Al = 4.1017E7, rho_Al = 2727.1, Cp_inlet = 886.8, k_inlet = 159.1, sigma_inlet = 3.8198E7, rho_inlet = 2616.6, Cp_outlet = 889.5, k_outlet = 169.5, sigma_outlet = 3.4793E7, rho_outlet = 2936.3, Cp_outlet_sleeve = 865.6, k_outlet_sleeve = 146.7, sigma_outlet_sleeve = 4.0197E7, rho_outlet_sleeve = 2687.2, Cp_inlet_sleeve = 842.1, k_inlet_sleeve = 173.8, sigma_inlet_sleeve = 3.7932E7, rho_inlet_sleeve = 2501.4) (degC), Point: 172Temperature (Cp_Al = 904.7, k_Al = 150.9, sigma_Al = 4.1017E7, rho_Al = 2727.1, Cp_inlet = 886.8, k_inlet = 159.1, sigma_inlet = 3.8198E7, rho_inlet = 2616.6, Cp_outlet = 889.5, k_outlet = 169.5, sigma_outlet = 3.4793E7, rho_outlet = 2936.3, Cp_outlet_sleeve = 865.6, k_outlet_sleeve = 146.7, sigma_outlet_sleeve = 4.0197E7, rho_outlet_sleeve = 2687.2, Cp_inlet_sleeve = 842.1, k_inlet_sleeve = 173.8, sigma_inlet_sleeve = 3.7932E7, rho_inlet_sleeve = 2501.4) (degC), Point: 181Temperature (Cp_Al = 904.7, k_Al = 150.9, sigma_Al = 4.1017E7, rho_Al = 2727.1, Cp_inlet = 886.8, k_inlet = 159.1, sigma_inlet = 3.8198E7, rho_inlet = 2616.6, Cp_outlet = 889.5, k_outlet = 169.5, sigma_outlet = 3.4793E7, rho_outlet = 2936.3, Cp_outlet_sleeve = 865.6, k_outlet_sleeve = 146.7, sigma_outlet_sleeve = 4.0197E7, rho_outlet_sleeve = 2687.2, Cp_inlet_sleeve = 842.1, k_inlet_sleeve = 173.8, sigma_inlet_sleeve = 3.7932E7, rho_inlet_sleeve = 2501.4) (degC), Point: 201Temperature (Cp_Al = 904.7, k_Al = 150.9, sigma_Al = 4.1017E7, rho_Al = 2727.1, Cp_inlet = 886.8, k_inlet = 159.1, sigma_inlet = 3.8198E7, rho_inlet = 2616.6, Cp_outlet = 889.5, k_outlet = 169.5, sigma_outlet = 3.4793E7, rho_outlet = 2936.3, Cp_outlet_sleeve = 865.6, k_outlet_sleeve = 146.7, sigma_outlet_sleeve = 4.0197E7, rho_outlet_sleeve = 2687.2, Cp_inlet_sleeve = 842.1, k_inlet_sleeve = 173.8, sigma_inlet_sleeve = 3.7932E7, rho_inlet_sleeve = 2501.4) (degC), Point: 210Temperature (Cp_Al = 904.7, k_Al = 150.9, sigma_Al = 4.1017E7, rho_Al = 2727.1, Cp_inlet = 886.8, k_inlet = 159.1, sigma_inlet = 3.8198E7, rho_inlet = 2616.6, Cp_outlet = 889.5, k_outlet = 169.5, sigma_outlet = 3.4793E7, rho_outlet = 2936.3, Cp_outlet_sleeve = 865.6, k_outlet_sleeve = 146.7, sigma_outlet_sleeve = 4.0197E7, rho_outlet_sleeve = 2687.2, Cp_inlet_sleeve = 842.1, k_inlet_sleeve = 173.8, sigma_inlet_sleeve = 3.7932E7, rho_inlet_sleeve = 2501.4) (degC), Point: 213Temperature (Cp_Al = 904.7, k_Al = 150.9, sigma_Al = 4.1017E7, rho_Al = 2727.1, Cp_inlet = 886.8, k_inlet = 159.1, sigma_inlet = 3.8198E7, rho_inlet = 2616.6, Cp_outlet = 889.5, k_outlet = 169.5, sigma_outlet = 3.4793E7, rho_outlet = 2936.3, Cp_outlet_sleeve = 865.6, k_outlet_sleeve = 146.7, sigma_outlet_sleeve = 4.0197E7, rho_outlet_sleeve = 2687.2, Cp_inlet_sleeve = 842.1, k_inlet_sleeve = 173.8, sigma_inlet_sleeve = 3.7932E7, rho_inlet_sleeve = 2501.4) (degC), Point: 215Temperature (Cp_Al = 904.7, k_Al = 150.9, sigma_Al = 4.1017E7, rho_Al = 2727.1, Cp_inlet = 886.8, k_inlet = 159.1, sigma_inlet = 3.8198E7, rho_inlet = 2616.6, Cp_outlet = 889.5, k_outlet = 169.5, sigma_outlet = 3.4793E7, rho_outlet = 2936.3, Cp_outlet_sleeve = 865.6, k_outlet_sleeve = 146.7, sigma_outlet_sleeve = 4.0197E7, rho_outlet_sleeve = 2687.2, Cp_inlet_sleeve = 842.1, k_inlet_sleeve = 173.8, sigma_inlet_sleeve = 3.7932E7, rho_inlet_sleeve = 2501.4) (degC), Point: 229Temperature (Cp_Al = 904.7, k_Al = 150.9, sigma_Al = 4.1017E7, rho_Al = 2727.1, Cp_inlet = 886.8, k_inlet = 159.1, sigma_inlet = 3.8198E7, rho_inlet = 2616.6, Cp_outlet = 889.5, k_outlet = 169.5, sigma_outlet = 3.4793E7, rho_outlet = 2936.3, Cp_outlet_sleeve = 865.6, k_outlet_sleeve = 146.7, sigma_outlet_sleeve = 4.0197E7, rho_outlet_sleeve = 2687.2, Cp_inlet_sleeve = 842.1, k_inlet_sleeve = 173.8, sigma_inlet_sleeve = 3.7932E7, rho_inlet_sleeve = 2501.4) (degC), Point: 232Temperature (Cp_Al = 904.7, k_Al = 150.9, sigma_Al = 4.1017E7, rho_Al = 2727.1, Cp_inlet = 886.8, k_inlet = 159.1, sigma_inlet = 3.8198E7, rho_inlet = 2616.6, Cp_outlet = 889.5, k_outlet = 169.5, sigma_outlet = 3.4793E7, rho_outlet = 2936.3, Cp_outlet_sleeve = 865.6, k_outlet_sleeve = 146.7, sigma_outlet_sleeve = 4.0197E7, rho_outlet_sleeve = 2687.2, Cp_inlet_sleeve = 842.1, k_inlet_sleeve = 173.8, sigma_inlet_sleeve = 3.7932E7, rho_inlet_sleeve = 2501.4) (degC), Point: 239Temperature (Cp_Al = 904.7, k_Al = 150.9, sigma_Al = 4.1017E7, rho_Al = 2727.1, Cp_inlet = 886.8, k_inlet = 159.1, sigma_inlet = 3.8198E7, rho_inlet = 2616.6, Cp_outlet = 889.5, k_outlet = 169.5, sigma_outlet = 3.4793E7, rho_outlet = 2936.3, Cp_outlet_sleeve = 865.6, k_outlet_sleeve = 146.7, sigma_outlet_sleeve = 4.0197E7, rho_outlet_sleeve = 2687.2, Cp_inlet_sleeve = 842.1, k_inlet_sleeve = 173.8, sigma_inlet_sleeve = 3.7932E7, rho_inlet_sleeve = 2501.4) (degC), Point: 252Temperature (Cp_Al = 904.7, k_Al = 150.9, sigma_Al = 4.1017E7, rho_Al = 2727.1, Cp_inlet = 886.8, k_inlet = 159.1, sigma_inlet = 3.8198E7, rho_inlet = 2616.6, Cp_outlet = 889.5, k_outlet = 169.5, sigma_outlet = 3.4793E7, rho_outlet = 2936.3, Cp_outlet_sleeve = 865.6, k_outlet_sleeve = 146.7, sigma_outlet_sleeve = 4.0197E7, rho_outlet_sleeve = 2687.2, Cp_inlet_sleeve = 842.1, k_inlet_sleeve = 173.8, sigma_inlet_sleeve = 3.7932E7, rho_inlet_sleeve = 2501.4) (degC), Point: 261Temperature (Cp_Al = 904.7, k_Al = 150.9, sigma_Al = 4.1017E7, rho_Al = 2727.1, Cp_inlet = 886.8, k_inlet = 159.1, sigma_inlet = 3.8198E7, rho_inlet = 2616.6, Cp_outlet = 889.5, k_outlet = 169.5, sigma_outlet = 3.4793E7, rho_outlet = 2936.3, Cp_outlet_sleeve = 865.6, k_outlet_sleeve = 146.7, sigma_outlet_sleeve = 4.0197E7, rho_outlet_sleeve = 2687.2, Cp_inlet_sleeve = 842.1, k_inlet_sleeve = 173.8, sigma_inlet_sleeve = 3.7932E7, rho_inlet_sleeve = 2501.4) (degC), Point: 270Temperature (Cp_Al = 904.7, k_Al = 150.9, sigma_Al = 4.1017E7, rho_Al = 2727.1, Cp_inlet = 886.8, k_inlet = 159.1, sigma_inlet = 3.8198E7, rho_inlet = 2616.6, Cp_outlet = 889.5, k_outlet = 169.5, sigma_outlet = 3.4793E7, rho_outlet = 2936.3, Cp_outlet_sleeve = 865.6, k_outlet_sleeve = 146.7, sigma_outlet_sleeve = 4.0197E7, rho_outlet_sleeve = 2687.2, Cp_inlet_sleeve = 842.1, k_inlet_sleeve = 173.8, sigma_inlet_sleeve = 3.7932E7, rho_inlet_sleeve = 2501.4) (degC), Point: 273Temperature (Cp_Al = 904.7, k_Al = 150.9, sigma_Al = 4.1017E7, rho_Al = 2727.1, Cp_inlet = 886.8, k_inlet = 159.1, sigma_inlet = 3.8198E7, rho_inlet = 2616.6, Cp_outlet = 889.5, k_outlet = 169.5, sigma_outlet = 3.4793E7, rho_outlet = 2936.3, Cp_outlet_sleeve = 865.6, k_outlet_sleeve = 146.7, sigma_outlet_sleeve = 4.0197E7, rho_outlet_sleeve = 2687.2, Cp_inlet_sleeve = 842.1, k_inlet_sleeve = 173.8, sigma_inlet_sleeve = 3.7932E7, rho_inlet_sleeve = 2501.4) (degC), Point: 275
0                        21.6276381966166         21.01108033931962        21.131099803935456       21.00776007802341        21.015512632346088       21.108208898191947       21.00839504487783        21.027880817765208       21.00165085274847        21.024553082284342       21.0011928802881         21.000637840422826       21.009564152407847       21.00011937836848        21.008421099289194       21.02054188820898        21.000054101140847       21.011468771364378       21.000645992231455       21.000261161570677       21.00174586441625        21.000160085046446       21.000249575109763       21.00839771991815        21.118718757862553       21.01491733682144        21.593706319033572       21.007666344961706       21.143897877200402       21.014581365824768       21.698321184187762
3                        293.271735765191         255.29815788646476       263.22588128683367       258.11627189923445       264.2016502127299        275.8883972941603        273.77499208731604       263.44576678733677       259.0563961127657        268.6647968482878        270.2643456242648        262.24939596159675       260.01825621568867       248.77531291453738       253.29834340026252       223.0368615655363        218.58819856726456       226.81544809916238       227.98030285663947       221.64608308068074       220.96897321410074       214.9874043335828        217.51664450564516       275.7046923143888        278.2566879988582        265.6687098132901        295.8431794187053        260.1400119461041        265.5397687868409        255.18164192853658       298.5008169965822
6                        415.3958785067847        376.006619110972         387.0738643585852        382.47861192608366       378.6188119001722        395.5821863615597        394.69823861077407       379.6275839177488        373.3398142333699        388.27017844845193       391.1026547351951        383.04863430739806       379.58594492525253       363.0011211168095        369.4166255191435        344.1814412823138        338.25525927227477       349.77347538166487       351.4795862728614        344.85138976859025       343.68174017932665       334.5462248866131        338.50933386815564       396.43126820648024       397.7247655501642        379.75893489152554       411.8499349859678        382.35428356778357       387.2279891596205        373.5110844483763        418.35080122762724
9                        490.87942073519          450.56649852291935       464.14951376840827       460.18914486106644       440.8334177671868        461.09436946428866       461.18817674166564       442.77330763414716       435.4647263465299        453.7278225324818        457.5413787553658        449.4793855579353        445.036352666448         425.1148116879168        432.54218039057696       418.86472901274203       411.96971962713735       426.1250120804833        428.4919704287696        421.9159757153484        420.1175603079687        408.4419383836441        413.34210094933576       462.82074223093196       463.11203787704824       441.7813846616349        474.90181980943964       458.69529412681607       462.9131674878697        446.50669361271014       492.3449673284083
12                       543.757925298133         502.7882350101705        518.3367832732506        514.9407680518224        482.21430213511326       504.6666684913896        505.46743748050926       484.7263899052755        476.7847090506899        497.2640379738997        501.7871445602311        493.7274565850154        488.57516812335825       466.4363587165286        474.4897752279504        471.23055488738055       463.6462263195773        479.85674668032823       482.80894894086464       476.30364214781855       473.93763054957344       460.2669236490698        465.8343345112954        507.04256063487355       506.60861713885595       483.04090162117666       516.7994574524499        512.6337400742414        516.2623592824336        497.7516223658389        544.3008336314426
15                       583.8978487903421        542.4338850602991        559.5537454535445        556.6412765833194        513.2221508254029        537.2345121819375        538.5620569058117        516.123713705172         507.75021695527585       529.8073185510266        534.8591413482484        526.8044444059383        521.1234547429805        497.4064231432401        505.88630755346264       511.03106166055784       502.92909046802254       520.7769172365771        524.2290817791768        517.8096007849778        514.9520001835386        499.67819491047135       505.7488569057433        540.1023520492798        539.1277829704098        513.96779637446          548.1613533001371        553.8503232447796        556.9702692744709        536.7758685877549        583.8598620193923
18                       615.8164260159213        573.9677924768498        592.374891240116         589.8797841991203        537.9035565022824        563.0750834111393        564.8097215387186        541.0834157223227        532.4018572686124        555.631043834366         561.0914065800914        553.0423643323597        546.9526713263998        522.063221369474         530.8470435305119        542.721718232909         534.2180727773972        553.4025785263302        557.2852354685218        550.9557717560762        547.670429581454         531.0776883369905        537.5407739626147        566.3290873252378        564.9366531062595        538.5942101612362        573.0978495404464        586.8087254128906        589.4872160439947        567.9131981053941        615.4128022967649
21                       642.7704166766265        600.6076887442454        620.1034530344253        617.9730111021426        559.0230910609479        585.1147298283264        587.1808068197391        562.4188002439713        553.4997471228832        577.6587469226965        583.4516336224016        575.4079505025096        568.9854781310285        543.1657994293078        552.1838206316518        569.5159471162225        560.6854289646476        580.9968152696774        585.2548612305117        579.0113884369272        575.3504565109533        557.6393265593601        564.4231284018515        588.6872597441919        586.9546825058111        559.6746648072155        594.417105394365         614.7373278960115        617.0289924108935        594.2893025282285        642.1273204808509
24                       666.5830647072577        624.1544016453063        644.5933255567486        642.7851271200251        577.9944484086352        604.8537419649552        607.2008117296117        581.5680678161821        572.4548672832561        597.3890333214802        603.4637355292517        595.4249156731983        588.7203368533994        562.1250094829498        571.3344385133572        593.2117729379644        584.105415452644         605.3903299963308        609.9795245180395        603.8149618033863        599.8212833168097        581.1402516669463        588.1955297844155        608.6992495798193        606.6784246045231        578.6172547403426        613.554674266583         639.4512012121253        641.4007693162572        617.6532610145441        665.7767196029433
27                       688.197980915384         645.5399323495585        666.8054942233299        665.283401210615         595.5056120039586        623.0218787545476        625.6121252874705        599.2304326460011        589.9536343311397        615.5506971604203        621.8692035612329        613.8347608962076        606.8860823763587        579.6273588905046        588.9980496542025        614.7389887046204        605.3954242135947        627.5315097935379        632.4142732211665        626.3211485506922        622.0316799511568        602.5004899113122        609.7897199187327        627.1057870903243        624.835637007165         596.1068947190336        631.2084060989473        661.8923596004544        663.5382922236649        638.909708997539         687.2783578768045
