% Model:              brazing.mph
% Version:            COMSOL 5.3.0.223
% Date:               Oct 23 2018, 13:34
% Table:              Table 3 - 
% Time (s)               Temperature (Cp_Al = 767.38, k_Al = 192.73, sigma_Al = 4.0854E7, rho_Al = 2200.4, Cp_inlet = 961.01, k_inlet = 157.28, sigma_inlet = 4.3894E7, rho_inlet = 2663.5, Cp_outlet = 886.95, k_outlet = 134.22, sigma_outlet = 4.2973E7, rho_outlet = 2281.2, Cp_outlet_sleeve = 1052, k_outlet_sleeve = 184.35, sigma_outlet_sleeve = 3.3536E7, rho_outlet_sleeve = 2860.4, Cp_inlet_sleeve = 1035.8, k_inlet_sleeve = 134.7, sigma_inlet_sleeve = 4.1358E7, rho_inlet_sleeve = 3236.9) (degC), Point: 55Temperature (Cp_Al = 767.38, k_Al = 192.73, sigma_Al = 4.0854E7, rho_Al = 2200.4, Cp_inlet = 961.01, k_inlet = 157.28, sigma_inlet = 4.3894E7, rho_inlet = 2663.5, Cp_outlet = 886.95, k_outlet = 134.22, sigma_outlet = 4.2973E7, rho_outlet = 2281.2, Cp_outlet_sleeve = 1052, k_outlet_sleeve = 184.35, sigma_outlet_sleeve = 3.3536E7, rho_outlet_sleeve = 2860.4, Cp_inlet_sleeve = 1035.8, k_inlet_sleeve = 134.7, sigma_inlet_sleeve = 4.1358E7, rho_inlet_sleeve = 3236.9) (degC), Point: 56Temperature (Cp_Al = 767.38, k_Al = 192.73, sigma_Al = 4.0854E7, rho_Al = 2200.4, Cp_inlet = 961.01, k_inlet = 157.28, sigma_inlet = 4.3894E7, rho_inlet = 2663.5, Cp_outlet = 886.95, k_outlet = 134.22, sigma_outlet = 4.2973E7, rho_outlet = 2281.2, Cp_outlet_sleeve = 1052, k_outlet_sleeve = 184.35, sigma_outlet_sleeve = 3.3536E7, rho_outlet_sleeve = 2860.4, Cp_inlet_sleeve = 1035.8, k_inlet_sleeve = 134.7, sigma_inlet_sleeve = 4.1358E7, rho_inlet_sleeve = 3236.9) (degC), Point: 60Temperature (Cp_Al = 767.38, k_Al = 192.73, sigma_Al = 4.0854E7, rho_Al = 2200.4, Cp_inlet = 961.01, k_inlet = 157.28, sigma_inlet = 4.3894E7, rho_inlet = 2663.5, Cp_outlet = 886.95, k_outlet = 134.22, sigma_outlet = 4.2973E7, rho_outlet = 2281.2, Cp_outlet_sleeve = 1052, k_outlet_sleeve = 184.35, sigma_outlet_sleeve = 3.3536E7, rho_outlet_sleeve = 2860.4, Cp_inlet_sleeve = 1035.8, k_inlet_sleeve = 134.7, sigma_inlet_sleeve = 4.1358E7, rho_inlet_sleeve = 3236.9) (degC), Point: 69Temperature (Cp_Al = 767.38, k_Al = 192.73, sigma_Al = 4.0854E7, rho_Al = 2200.4, Cp_inlet = 961.01, k_inlet = 157.28, sigma_inlet = 4.3894E7, rho_inlet = 2663.5, Cp_outlet = 886.95, k_outlet = 134.22, sigma_outlet = 4.2973E7, rho_outlet = 2281.2, Cp_outlet_sleeve = 1052, k_outlet_sleeve = 184.35, sigma_outlet_sleeve = 3.3536E7, rho_outlet_sleeve = 2860.4, Cp_inlet_sleeve = 1035.8, k_inlet_sleeve = 134.7, sigma_inlet_sleeve = 4.1358E7, rho_inlet_sleeve = 3236.9) (degC), Point: 90Temperature (Cp_Al = 767.38, k_Al = 192.73, sigma_Al = 4.0854E7, rho_Al = 2200.4, Cp_inlet = 961.01, k_inlet = 157.28, sigma_inlet = 4.3894E7, rho_inlet = 2663.5, Cp_outlet = 886.95, k_outlet = 134.22, sigma_outlet = 4.2973E7, rho_outlet = 2281.2, Cp_outlet_sleeve = 1052, k_outlet_sleeve = 184.35, sigma_outlet_sleeve = 3.3536E7, rho_outlet_sleeve = 2860.4, Cp_inlet_sleeve = 1035.8, k_inlet_sleeve = 134.7, sigma_inlet_sleeve = 4.1358E7, rho_inlet_sleeve = 3236.9) (degC), Point: 98Temperature (Cp_Al = 767.38, k_Al = 192.73, sigma_Al = 4.0854E7, rho_Al = 2200.4, Cp_inlet = 961.01, k_inlet = 157.28, sigma_inlet = 4.3894E7, rho_inlet = 2663.5, Cp_outlet = 886.95, k_outlet = 134.22, sigma_outlet = 4.2973E7, rho_outlet = 2281.2, Cp_outlet_sleeve = 1052, k_outlet_sleeve = 184.35, sigma_outlet_sleeve = 3.3536E7, rho_outlet_sleeve = 2860.4, Cp_inlet_sleeve = 1035.8, k_inlet_sleeve = 134.7, sigma_inlet_sleeve = 4.1358E7, rho_inlet_sleeve = 3236.9) (degC), Point: 102Temperature (Cp_Al = 767.38, k_Al = 192.73, sigma_Al = 4.0854E7, rho_Al = 2200.4, Cp_inlet = 961.01, k_inlet = 157.28, sigma_inlet = 4.3894E7, rho_inlet = 2663.5, Cp_outlet = 886.95, k_outlet = 134.22, sigma_outlet = 4.2973E7, rho_outlet = 2281.2, Cp_outlet_sleeve = 1052, k_outlet_sleeve = 184.35, sigma_outlet_sleeve = 3.3536E7, rho_outlet_sleeve = 2860.4, Cp_inlet_sleeve = 1035.8, k_inlet_sleeve = 134.7, sigma_inlet_sleeve = 4.1358E7, rho_inlet_sleeve = 3236.9) (degC), Point: 127Temperature (Cp_Al = 767.38, k_Al = 192.73, sigma_Al = 4.0854E7, rho_Al = 2200.4, Cp_inlet = 961.01, k_inlet = 157.28, sigma_inlet = 4.3894E7, rho_inlet = 2663.5, Cp_outlet = 886.95, k_outlet = 134.22, sigma_outlet = 4.2973E7, rho_outlet = 2281.2, Cp_outlet_sleeve = 1052, k_outlet_sleeve = 184.35, sigma_outlet_sleeve = 3.3536E7, rho_outlet_sleeve = 2860.4, Cp_inlet_sleeve = 1035.8, k_inlet_sleeve = 134.7, sigma_inlet_sleeve = 4.1358E7, rho_inlet_sleeve = 3236.9) (degC), Point: 128Temperature (Cp_Al = 767.38, k_Al = 192.73, sigma_Al = 4.0854E7, rho_Al = 2200.4, Cp_inlet = 961.01, k_inlet = 157.28, sigma_inlet = 4.3894E7, rho_inlet = 2663.5, Cp_outlet = 886.95, k_outlet = 134.22, sigma_outlet = 4.2973E7, rho_outlet = 2281.2, Cp_outlet_sleeve = 1052, k_outlet_sleeve = 184.35, sigma_outlet_sleeve = 3.3536E7, rho_outlet_sleeve = 2860.4, Cp_inlet_sleeve = 1035.8, k_inlet_sleeve = 134.7, sigma_inlet_sleeve = 4.1358E7, rho_inlet_sleeve = 3236.9) (degC), Point: 134Temperature (Cp_Al = 767.38, k_Al = 192.73, sigma_Al = 4.0854E7, rho_Al = 2200.4, Cp_inlet = 961.01, k_inlet = 157.28, sigma_inlet = 4.3894E7, rho_inlet = 2663.5, Cp_outlet = 886.95, k_outlet = 134.22, sigma_outlet = 4.2973E7, rho_outlet = 2281.2, Cp_outlet_sleeve = 1052, k_outlet_sleeve = 184.35, sigma_outlet_sleeve = 3.3536E7, rho_outlet_sleeve = 2860.4, Cp_inlet_sleeve = 1035.8, k_inlet_sleeve = 134.7, sigma_inlet_sleeve = 4.1358E7, rho_inlet_sleeve = 3236.9) (degC), Point: 138Temperature (Cp_Al = 767.38, k_Al = 192.73, sigma_Al = 4.0854E7, rho_Al = 2200.4, Cp_inlet = 961.01, k_inlet = 157.28, sigma_inlet = 4.3894E7, rho_inlet = 2663.5, Cp_outlet = 886.95, k_outlet = 134.22, sigma_outlet = 4.2973E7, rho_outlet = 2281.2, Cp_outlet_sleeve = 1052, k_outlet_sleeve = 184.35, sigma_outlet_sleeve = 3.3536E7, rho_outlet_sleeve = 2860.4, Cp_inlet_sleeve = 1035.8, k_inlet_sleeve = 134.7, sigma_inlet_sleeve = 4.1358E7, rho_inlet_sleeve = 3236.9) (degC), Point: 151Temperature (Cp_Al = 767.38, k_Al = 192.73, sigma_Al = 4.0854E7, rho_Al = 2200.4, Cp_inlet = 961.01, k_inlet = 157.28, sigma_inlet = 4.3894E7, rho_inlet = 2663.5, Cp_outlet = 886.95, k_outlet = 134.22, sigma_outlet = 4.2973E7, rho_outlet = 2281.2, Cp_outlet_sleeve = 1052, k_outlet_sleeve = 184.35, sigma_outlet_sleeve = 3.3536E7, rho_outlet_sleeve = 2860.4, Cp_inlet_sleeve = 1035.8, k_inlet_sleeve = 134.7, sigma_inlet_sleeve = 4.1358E7, rho_inlet_sleeve = 3236.9) (degC), Point: 154Temperature (Cp_Al = 767.38, k_Al = 192.73, sigma_Al = 4.0854E7, rho_Al = 2200.4, Cp_inlet = 961.01, k_inlet = 157.28, sigma_inlet = 4.3894E7, rho_inlet = 2663.5, Cp_outlet = 886.95, k_outlet = 134.22, sigma_outlet = 4.2973E7, rho_outlet = 2281.2, Cp_outlet_sleeve = 1052, k_outlet_sleeve = 184.35, sigma_outlet_sleeve = 3.3536E7, rho_outlet_sleeve = 2860.4, Cp_inlet_sleeve = 1035.8, k_inlet_sleeve = 134.7, sigma_inlet_sleeve = 4.1358E7, rho_inlet_sleeve = 3236.9) (degC), Point: 159Temperature (Cp_Al = 767.38, k_Al = 192.73, sigma_Al = 4.0854E7, rho_Al = 2200.4, Cp_inlet = 961.01, k_inlet = 157.28, sigma_inlet = 4.3894E7, rho_inlet = 2663.5, Cp_outlet = 886.95, k_outlet = 134.22, sigma_outlet = 4.2973E7, rho_outlet = 2281.2, Cp_outlet_sleeve = 1052, k_outlet_sleeve = 184.35, sigma_outlet_sleeve = 3.3536E7, rho_outlet_sleeve = 2860.4, Cp_inlet_sleeve = 1035.8, k_inlet_sleeve = 134.7, sigma_inlet_sleeve = 4.1358E7, rho_inlet_sleeve = 3236.9) (degC), Point: 163Temperature (Cp_Al = 767.38, k_Al = 192.73, sigma_Al = 4.0854E7, rho_Al = 2200.4, Cp_inlet = 961.01, k_inlet = 157.28, sigma_inlet = 4.3894E7, rho_inlet = 2663.5, Cp_outlet = 886.95, k_outlet = 134.22, sigma_outlet = 4.2973E7, rho_outlet = 2281.2, Cp_outlet_sleeve = 1052, k_outlet_sleeve = 184.35, sigma_outlet_sleeve = 3.3536E7, rho_outlet_sleeve = 2860.4, Cp_inlet_sleeve = 1035.8, k_inlet_sleeve = 134.7, sigma_inlet_sleeve = 4.1358E7, rho_inlet_sleeve = 3236.9) (degC), Point: 167Temperature (Cp_Al = 767.38, k_Al = 192.73, sigma_Al = 4.0854E7, rho_Al = 2200.4, Cp_inlet = 961.01, k_inlet = 157.28, sigma_inlet = 4.3894E7, rho_inlet = 2663.5, Cp_outlet = 886.95, k_outlet = 134.22, sigma_outlet = 4.2973E7, rho_outlet = 2281.2, Cp_outlet_sleeve = 1052, k_outlet_sleeve = 184.35, sigma_outlet_sleeve = 3.3536E7, rho_outlet_sleeve = 2860.4, Cp_inlet_sleeve = 1035.8, k_inlet_sleeve = 134.7, sigma_inlet_sleeve = 4.1358E7, rho_inlet_sleeve = 3236.9) (degC), Point: 168Temperature (Cp_Al = 767.38, k_Al = 192.73, sigma_Al = 4.0854E7, rho_Al = 2200.4, Cp_inlet = 961.01, k_inlet = 157.28, sigma_inlet = 4.3894E7, rho_inlet = 2663.5, Cp_outlet = 886.95, k_outlet = 134.22, sigma_outlet = 4.2973E7, rho_outlet = 2281.2, Cp_outlet_sleeve = 1052, k_outlet_sleeve = 184.35, sigma_outlet_sleeve = 3.3536E7, rho_outlet_sleeve = 2860.4, Cp_inlet_sleeve = 1035.8, k_inlet_sleeve = 134.7, sigma_inlet_sleeve = 4.1358E7, rho_inlet_sleeve = 3236.9) (degC), Point: 172Temperature (Cp_Al = 767.38, k_Al = 192.73, sigma_Al = 4.0854E7, rho_Al = 2200.4, Cp_inlet = 961.01, k_inlet = 157.28, sigma_inlet = 4.3894E7, rho_inlet = 2663.5, Cp_outlet = 886.95, k_outlet = 134.22, sigma_outlet = 4.2973E7, rho_outlet = 2281.2, Cp_outlet_sleeve = 1052, k_outlet_sleeve = 184.35, sigma_outlet_sleeve = 3.3536E7, rho_outlet_sleeve = 2860.4, Cp_inlet_sleeve = 1035.8, k_inlet_sleeve = 134.7, sigma_inlet_sleeve = 4.1358E7, rho_inlet_sleeve = 3236.9) (degC), Point: 181Temperature (Cp_Al = 767.38, k_Al = 192.73, sigma_Al = 4.0854E7, rho_Al = 2200.4, Cp_inlet = 961.01, k_inlet = 157.28, sigma_inlet = 4.3894E7, rho_inlet = 2663.5, Cp_outlet = 886.95, k_outlet = 134.22, sigma_outlet = 4.2973E7, rho_outlet = 2281.2, Cp_outlet_sleeve = 1052, k_outlet_sleeve = 184.35, sigma_outlet_sleeve = 3.3536E7, rho_outlet_sleeve = 2860.4, Cp_inlet_sleeve = 1035.8, k_inlet_sleeve = 134.7, sigma_inlet_sleeve = 4.1358E7, rho_inlet_sleeve = 3236.9) (degC), Point: 201Temperature (Cp_Al = 767.38, k_Al = 192.73, sigma_Al = 4.0854E7, rho_Al = 2200.4, Cp_inlet = 961.01, k_inlet = 157.28, sigma_inlet = 4.3894E7, rho_inlet = 2663.5, Cp_outlet = 886.95, k_outlet = 134.22, sigma_outlet = 4.2973E7, rho_outlet = 2281.2, Cp_outlet_sleeve = 1052, k_outlet_sleeve = 184.35, sigma_outlet_sleeve = 3.3536E7, rho_outlet_sleeve = 2860.4, Cp_inlet_sleeve = 1035.8, k_inlet_sleeve = 134.7, sigma_inlet_sleeve = 4.1358E7, rho_inlet_sleeve = 3236.9) (degC), Point: 210Temperature (Cp_Al = 767.38, k_Al = 192.73, sigma_Al = 4.0854E7, rho_Al = 2200.4, Cp_inlet = 961.01, k_inlet = 157.28, sigma_inlet = 4.3894E7, rho_inlet = 2663.5, Cp_outlet = 886.95, k_outlet = 134.22, sigma_outlet = 4.2973E7, rho_outlet = 2281.2, Cp_outlet_sleeve = 1052, k_outlet_sleeve = 184.35, sigma_outlet_sleeve = 3.3536E7, rho_outlet_sleeve = 2860.4, Cp_inlet_sleeve = 1035.8, k_inlet_sleeve = 134.7, sigma_inlet_sleeve = 4.1358E7, rho_inlet_sleeve = 3236.9) (degC), Point: 213Temperature (Cp_Al = 767.38, k_Al = 192.73, sigma_Al = 4.0854E7, rho_Al = 2200.4, Cp_inlet = 961.01, k_inlet = 157.28, sigma_inlet = 4.3894E7, rho_inlet = 2663.5, Cp_outlet = 886.95, k_outlet = 134.22, sigma_outlet = 4.2973E7, rho_outlet = 2281.2, Cp_outlet_sleeve = 1052, k_outlet_sleeve = 184.35, sigma_outlet_sleeve = 3.3536E7, rho_outlet_sleeve = 2860.4, Cp_inlet_sleeve = 1035.8, k_inlet_sleeve = 134.7, sigma_inlet_sleeve = 4.1358E7, rho_inlet_sleeve = 3236.9) (degC), Point: 215Temperature (Cp_Al = 767.38, k_Al = 192.73, sigma_Al = 4.0854E7, rho_Al = 2200.4, Cp_inlet = 961.01, k_inlet = 157.28, sigma_inlet = 4.3894E7, rho_inlet = 2663.5, Cp_outlet = 886.95, k_outlet = 134.22, sigma_outlet = 4.2973E7, rho_outlet = 2281.2, Cp_outlet_sleeve = 1052, k_outlet_sleeve = 184.35, sigma_outlet_sleeve = 3.3536E7, rho_outlet_sleeve = 2860.4, Cp_inlet_sleeve = 1035.8, k_inlet_sleeve = 134.7, sigma_inlet_sleeve = 4.1358E7, rho_inlet_sleeve = 3236.9) (degC), Point: 229Temperature (Cp_Al = 767.38, k_Al = 192.73, sigma_Al = 4.0854E7, rho_Al = 2200.4, Cp_inlet = 961.01, k_inlet = 157.28, sigma_inlet = 4.3894E7, rho_inlet = 2663.5, Cp_outlet = 886.95, k_outlet = 134.22, sigma_outlet = 4.2973E7, rho_outlet = 2281.2, Cp_outlet_sleeve = 1052, k_outlet_sleeve = 184.35, sigma_outlet_sleeve = 3.3536E7, rho_outlet_sleeve = 2860.4, Cp_inlet_sleeve = 1035.8, k_inlet_sleeve = 134.7, sigma_inlet_sleeve = 4.1358E7, rho_inlet_sleeve = 3236.9) (degC), Point: 232Temperature (Cp_Al = 767.38, k_Al = 192.73, sigma_Al = 4.0854E7, rho_Al = 2200.4, Cp_inlet = 961.01, k_inlet = 157.28, sigma_inlet = 4.3894E7, rho_inlet = 2663.5, Cp_outlet = 886.95, k_outlet = 134.22, sigma_outlet = 4.2973E7, rho_outlet = 2281.2, Cp_outlet_sleeve = 1052, k_outlet_sleeve = 184.35, sigma_outlet_sleeve = 3.3536E7, rho_outlet_sleeve = 2860.4, Cp_inlet_sleeve = 1035.8, k_inlet_sleeve = 134.7, sigma_inlet_sleeve = 4.1358E7, rho_inlet_sleeve = 3236.9) (degC), Point: 239Temperature (Cp_Al = 767.38, k_Al = 192.73, sigma_Al = 4.0854E7, rho_Al = 2200.4, Cp_inlet = 961.01, k_inlet = 157.28, sigma_inlet = 4.3894E7, rho_inlet = 2663.5, Cp_outlet = 886.95, k_outlet = 134.22, sigma_outlet = 4.2973E7, rho_outlet = 2281.2, Cp_outlet_sleeve = 1052, k_outlet_sleeve = 184.35, sigma_outlet_sleeve = 3.3536E7, rho_outlet_sleeve = 2860.4, Cp_inlet_sleeve = 1035.8, k_inlet_sleeve = 134.7, sigma_inlet_sleeve = 4.1358E7, rho_inlet_sleeve = 3236.9) (degC), Point: 252Temperature (Cp_Al = 767.38, k_Al = 192.73, sigma_Al = 4.0854E7, rho_Al = 2200.4, Cp_inlet = 961.01, k_inlet = 157.28, sigma_inlet = 4.3894E7, rho_inlet = 2663.5, Cp_outlet = 886.95, k_outlet = 134.22, sigma_outlet = 4.2973E7, rho_outlet = 2281.2, Cp_outlet_sleeve = 1052, k_outlet_sleeve = 184.35, sigma_outlet_sleeve = 3.3536E7, rho_outlet_sleeve = 2860.4, Cp_inlet_sleeve = 1035.8, k_inlet_sleeve = 134.7, sigma_inlet_sleeve = 4.1358E7, rho_inlet_sleeve = 3236.9) (degC), Point: 261Temperature (Cp_Al = 767.38, k_Al = 192.73, sigma_Al = 4.0854E7, rho_Al = 2200.4, Cp_inlet = 961.01, k_inlet = 157.28, sigma_inlet = 4.3894E7, rho_inlet = 2663.5, Cp_outlet = 886.95, k_outlet = 134.22, sigma_outlet = 4.2973E7, rho_outlet = 2281.2, Cp_outlet_sleeve = 1052, k_outlet_sleeve = 184.35, sigma_outlet_sleeve = 3.3536E7, rho_outlet_sleeve = 2860.4, Cp_inlet_sleeve = 1035.8, k_inlet_sleeve = 134.7, sigma_inlet_sleeve = 4.1358E7, rho_inlet_sleeve = 3236.9) (degC), Point: 270Temperature (Cp_Al = 767.38, k_Al = 192.73, sigma_Al = 4.0854E7, rho_Al = 2200.4, Cp_inlet = 961.01, k_inlet = 157.28, sigma_inlet = 4.3894E7, rho_inlet = 2663.5, Cp_outlet = 886.95, k_outlet = 134.22, sigma_outlet = 4.2973E7, rho_outlet = 2281.2, Cp_outlet_sleeve = 1052, k_outlet_sleeve = 184.35, sigma_outlet_sleeve = 3.3536E7, rho_outlet_sleeve = 2860.4, Cp_inlet_sleeve = 1035.8, k_inlet_sleeve = 134.7, sigma_inlet_sleeve = 4.1358E7, rho_inlet_sleeve = 3236.9) (degC), Point: 273Temperature (Cp_Al = 767.38, k_Al = 192.73, sigma_Al = 4.0854E7, rho_Al = 2200.4, Cp_inlet = 961.01, k_inlet = 157.28, sigma_inlet = 4.3894E7, rho_inlet = 2663.5, Cp_outlet = 886.95, k_outlet = 134.22, sigma_outlet = 4.2973E7, rho_outlet = 2281.2, Cp_outlet_sleeve = 1052, k_outlet_sleeve = 184.35, sigma_outlet_sleeve = 3.3536E7, rho_outlet_sleeve = 2860.4, Cp_inlet_sleeve = 1035.8, k_inlet_sleeve = 134.7, sigma_inlet_sleeve = 4.1358E7, rho_inlet_sleeve = 3236.9) (degC), Point: 275
0                        21.44620689112884        21.009427919242512       21.131082759203935       21.008845789921224       21.009914543777313       21.106180273048665       21.007643623164995       21.018825622181396       21.001028641933885       21.024063784024975       21.001081191361266       21.000583658342237       21.00939784630708        21.000088938402428       21.00555917641219        21.014594448064088       21.000045695046936       21.01151103057498        21.000762218942157       21.000311855928715       21.001778876002902       21.00013438767712        21.000190123837626       21.00765054308414        21.1164891422153         21.00951733556309        21.402193026055215       21.008707218633617       21.14386613496083        21.011624688202915       21.496548066551725
3                        278.72946667839756       248.3334626742685        261.273767903366         257.8947349440058        227.55022027297292       238.62689282176558       236.47755574940186       225.75241086842846       221.2210885501512        231.2096230055297        232.80472928155996       224.59473026148817       222.33191703883267       210.2197945633239        214.80092882951226       216.04758535836913       211.5630261383679        222.62383811485768       224.99027191994907       218.91705927277508       217.1991290776051        208.67586349672024       211.57999808593848       238.60792009733098       241.21422041323285       229.34694835105677       267.0677907241866        259.67608990727547       263.2745317205246        247.71049559268295       282.50209598212973
6                        396.29577345818154       364.4298656002976        380.8498893261062        378.1655731481102        351.3325117979449        366.08055698604016       364.5474435968697        351.3362287841518        344.8803944787172        358.585465949001         360.80085251064713       352.55620349736364       349.6765017778247        333.847274329392         340.3425322799036        332.42454652214985       326.4052212670455        341.1224431814451        344.22043737859394       338.09055095953033       335.70527677450605       323.71781270627855       328.0958264725125        366.5008292587462        368.47500008324187       352.85077063712924       392.5095547521961        377.72416962599993       380.61459578496647       361.3660278752511        397.7197077855824
9                        467.009453027694         434.26933457267637       453.18236648725565       451.18141988541606       429.27657905048056       446.8990934556431        446.0443306603262        430.4415353119423        422.7416950309216        439.3520214818137        442.2487479858156        434.00575609217924       430.4474009327971        411.71496567223346       419.4452695318512        402.3352526179451        395.40639304579554       412.72072624771783       416.5262532458687        410.55770179272713       407.4970377989605        393.00641374819133       398.2655201906126        447.9078848311465        449.1880013272157        430.6351513436173        471.5444721439869        449.45441500604886       451.64423757858117       429.76330509445415       467.0483202288874
12                       513.5608787561698        480.27510188302244       500.96731329081547       499.534532389187         481.7413734302337        501.5204240348713        501.260780256222         483.6806839558824        475.164036303804         493.94857973024193       497.4417610431527        489.1927202617941        485.03813265309486       464.1273785188247        472.66815436926106       448.4612804903426        440.96660574719374       460.12223233318366       464.51193700755675       458.62397545154136       454.99121302256776       438.69703123746285       444.5090831624151        503.0772813523379        503.74889679986927       483.0045558188517        524.7340263852469        497.13978226537324       498.74081394713403       474.97804443403436       512.8456304412306
15                       548.8908394476044        515.2288647026432        537.2428304600429        536.2620700288882        521.2679961376067        542.6648035727775        542.8838530439695        523.7505395702602        514.6648471640065        535.0785463532228        539.0512051170772        530.7995208812689        526.1652312362646        503.62139116702326       512.7264593655108        483.5539682727799        475.67051395489375       496.18821153618444       501.04128588845833       495.20661373651194       491.1132834145659        473.4698529818247        479.66452081199225       544.6752393565914        544.8575573710048        522.4723064903184        564.7724347353309        533.5162970707953        534.6448215137551        509.4811580004646        547.7504016871308
18                       578.0287839272054        544.0905476764445        567.1299476816773        566.5157852828079        553.2124377440038        575.8484139970182        576.4516308378185        556.090838420504         546.5930882924162        568.2535931427725        572.6109018576831        564.3589270606659        559.339623654046         535.5457443277264        545.059135186531         512.549990183102         504.3820215122604        525.9530442112354        531.1812854510841        525.3980704475           520.9283536352004        502.23354707009          508.70969775764604       578.2304384422913        578.0201792821262        554.3800965594456        597.0928877577859        563.589486552267         564.332567139727         538.0813792909511        576.6449863950452
21                       603.3489903696747        569.1998460879767        593.0589649397009        592.747876776742         580.3111964922643        603.9164369185572        604.8319852802676        583.4855771115882        573.6817474061138        596.3167160171141        600.9866493866086        592.7356551728076        587.4033077338919        562.632325459126         572.4487720905421        537.7843477309942        529.3999405387987        551.8105641351596        557.3485249431633        551.6153753104713        546.8329391000809        527.2954460047386        533.9866004027299        606.6057295326566        606.0763710690696        581.4562821189206        624.47515311544          589.7394134703834        590.1627318168566        563.0427942014165        601.8303530362025
24                       626.4044420167825        592.0870726282691        616.6214372023745        616.5654393106611        604.4572516742668        628.8446554134897        630.0196368833454        607.8618402414257        597.8212617570907        621.2421101189459        626.1716629977793        617.922320845027         612.32993725692          586.7709323920172        596.8215976212607        560.7851531210498        552.2286282605788        575.3293211096617        581.127670665452         575.4414678285417        570.3951515330272        550.1627902096673        557.0253371591305        631.7924011744058        630.9980318997724        605.5881012809107        648.8434003823648        613.5256784256945        613.6794968643723        585.8450611217909        624.810541507961
27                       648.0187612182044        613.5636910485844        638.6632733766293        638.8237471834653        626.739064768004         651.7744143806747        653.1690285313348        630.3287018719479        620.0986474117396        644.1702275797892        649.3195384223745        641.0721555290617        635.2596230348437        609.048127147383         619.2861047676911        582.3629038070239        573.6658164833194        597.3431715828905        603.3622955190209        597.7185387223349        592.44801944481          571.633889588043         578.6366022664457        654.9429634340603        653.9242663374723        627.8606584665663        671.3049583760713        635.778269905181         635.7033221102529        607.271828232479         646.3824361773032
