% Model:              brazing.mph
% Version:            COMSOL 5.3.0.223
% Date:               Oct 23 2018, 13:47
% Table:              Table 3 - 
% Time (s)               Temperature (Cp_Al = 845.8, k_Al = 174.04, sigma_Al = 4.0228E7, rho_Al = 2457.2, Cp_inlet = 921.71, k_inlet = 158.25, sigma_inlet = 4.0593E7, rho_inlet = 2632.4, Cp_outlet = 883.92, k_outlet = 149.6, sigma_outlet = 3.909E7, rho_outlet = 2578.1, Cp_outlet_sleeve = 957.16, k_outlet_sleeve = 167.45, sigma_outlet_sleeve = 3.6192E7, rho_outlet_sleeve = 2749.2, Cp_inlet_sleeve = 944.3, k_inlet_sleeve = 152.05, sigma_inlet_sleeve = 3.9282E7, rho_inlet_sleeve = 2885) (degC), Point: 55Temperature (Cp_Al = 845.8, k_Al = 174.04, sigma_Al = 4.0228E7, rho_Al = 2457.2, Cp_inlet = 921.71, k_inlet = 158.25, sigma_inlet = 4.0593E7, rho_inlet = 2632.4, Cp_outlet = 883.92, k_outlet = 149.6, sigma_outlet = 3.909E7, rho_outlet = 2578.1, Cp_outlet_sleeve = 957.16, k_outlet_sleeve = 167.45, sigma_outlet_sleeve = 3.6192E7, rho_outlet_sleeve = 2749.2, Cp_inlet_sleeve = 944.3, k_inlet_sleeve = 152.05, sigma_inlet_sleeve = 3.9282E7, rho_inlet_sleeve = 2885) (degC), Point: 56Temperature (Cp_Al = 845.8, k_Al = 174.04, sigma_Al = 4.0228E7, rho_Al = 2457.2, Cp_inlet = 921.71, k_inlet = 158.25, sigma_inlet = 4.0593E7, rho_inlet = 2632.4, Cp_outlet = 883.92, k_outlet = 149.6, sigma_outlet = 3.909E7, rho_outlet = 2578.1, Cp_outlet_sleeve = 957.16, k_outlet_sleeve = 167.45, sigma_outlet_sleeve = 3.6192E7, rho_outlet_sleeve = 2749.2, Cp_inlet_sleeve = 944.3, k_inlet_sleeve = 152.05, sigma_inlet_sleeve = 3.9282E7, rho_inlet_sleeve = 2885) (degC), Point: 60Temperature (Cp_Al = 845.8, k_Al = 174.04, sigma_Al = 4.0228E7, rho_Al = 2457.2, Cp_inlet = 921.71, k_inlet = 158.25, sigma_inlet = 4.0593E7, rho_inlet = 2632.4, Cp_outlet = 883.92, k_outlet = 149.6, sigma_outlet = 3.909E7, rho_outlet = 2578.1, Cp_outlet_sleeve = 957.16, k_outlet_sleeve = 167.45, sigma_outlet_sleeve = 3.6192E7, rho_outlet_sleeve = 2749.2, Cp_inlet_sleeve = 944.3, k_inlet_sleeve = 152.05, sigma_inlet_sleeve = 3.9282E7, rho_inlet_sleeve = 2885) (degC), Point: 69Temperature (Cp_Al = 845.8, k_Al = 174.04, sigma_Al = 4.0228E7, rho_Al = 2457.2, Cp_inlet = 921.71, k_inlet = 158.25, sigma_inlet = 4.0593E7, rho_inlet = 2632.4, Cp_outlet = 883.92, k_outlet = 149.6, sigma_outlet = 3.909E7, rho_outlet = 2578.1, Cp_outlet_sleeve = 957.16, k_outlet_sleeve = 167.45, sigma_outlet_sleeve = 3.6192E7, rho_outlet_sleeve = 2749.2, Cp_inlet_sleeve = 944.3, k_inlet_sleeve = 152.05, sigma_inlet_sleeve = 3.9282E7, rho_inlet_sleeve = 2885) (degC), Point: 90Temperature (Cp_Al = 845.8, k_Al = 174.04, sigma_Al = 4.0228E7, rho_Al = 2457.2, Cp_inlet = 921.71, k_inlet = 158.25, sigma_inlet = 4.0593E7, rho_inlet = 2632.4, Cp_outlet = 883.92, k_outlet = 149.6, sigma_outlet = 3.909E7, rho_outlet = 2578.1, Cp_outlet_sleeve = 957.16, k_outlet_sleeve = 167.45, sigma_outlet_sleeve = 3.6192E7, rho_outlet_sleeve = 2749.2, Cp_inlet_sleeve = 944.3, k_inlet_sleeve = 152.05, sigma_inlet_sleeve = 3.9282E7, rho_inlet_sleeve = 2885) (degC), Point: 98Temperature (Cp_Al = 845.8, k_Al = 174.04, sigma_Al = 4.0228E7, rho_Al = 2457.2, Cp_inlet = 921.71, k_inlet = 158.25, sigma_inlet = 4.0593E7, rho_inlet = 2632.4, Cp_outlet = 883.92, k_outlet = 149.6, sigma_outlet = 3.909E7, rho_outlet = 2578.1, Cp_outlet_sleeve = 957.16, k_outlet_sleeve = 167.45, sigma_outlet_sleeve = 3.6192E7, rho_outlet_sleeve = 2749.2, Cp_inlet_sleeve = 944.3, k_inlet_sleeve = 152.05, sigma_inlet_sleeve = 3.9282E7, rho_inlet_sleeve = 2885) (degC), Point: 102Temperature (Cp_Al = 845.8, k_Al = 174.04, sigma_Al = 4.0228E7, rho_Al = 2457.2, Cp_inlet = 921.71, k_inlet = 158.25, sigma_inlet = 4.0593E7, rho_inlet = 2632.4, Cp_outlet = 883.92, k_outlet = 149.6, sigma_outlet = 3.909E7, rho_outlet = 2578.1, Cp_outlet_sleeve = 957.16, k_outlet_sleeve = 167.45, sigma_outlet_sleeve = 3.6192E7, rho_outlet_sleeve = 2749.2, Cp_inlet_sleeve = 944.3, k_inlet_sleeve = 152.05, sigma_inlet_sleeve = 3.9282E7, rho_inlet_sleeve = 2885) (degC), Point: 127Temperature (Cp_Al = 845.8, k_Al = 174.04, sigma_Al = 4.0228E7, rho_Al = 2457.2, Cp_inlet = 921.71, k_inlet = 158.25, sigma_inlet = 4.0593E7, rho_inlet = 2632.4, Cp_outlet = 883.92, k_outlet = 149.6, sigma_outlet = 3.909E7, rho_outlet = 2578.1, Cp_outlet_sleeve = 957.16, k_outlet_sleeve = 167.45, sigma_outlet_sleeve = 3.6192E7, rho_outlet_sleeve = 2749.2, Cp_inlet_sleeve = 944.3, k_inlet_sleeve = 152.05, sigma_inlet_sleeve = 3.9282E7, rho_inlet_sleeve = 2885) (degC), Point: 128Temperature (Cp_Al = 845.8, k_Al = 174.04, sigma_Al = 4.0228E7, rho_Al = 2457.2, Cp_inlet = 921.71, k_inlet = 158.25, sigma_inlet = 4.0593E7, rho_inlet = 2632.4, Cp_outlet = 883.92, k_outlet = 149.6, sigma_outlet = 3.909E7, rho_outlet = 2578.1, Cp_outlet_sleeve = 957.16, k_outlet_sleeve = 167.45, sigma_outlet_sleeve = 3.6192E7, rho_outlet_sleeve = 2749.2, Cp_inlet_sleeve = 944.3, k_inlet_sleeve = 152.05, sigma_inlet_sleeve = 3.9282E7, rho_inlet_sleeve = 2885) (degC), Point: 134Temperature (Cp_Al = 845.8, k_Al = 174.04, sigma_Al = 4.0228E7, rho_Al = 2457.2, Cp_inlet = 921.71, k_inlet = 158.25, sigma_inlet = 4.0593E7, rho_inlet = 2632.4, Cp_outlet = 883.92, k_outlet = 149.6, sigma_outlet = 3.909E7, rho_outlet = 2578.1, Cp_outlet_sleeve = 957.16, k_outlet_sleeve = 167.45, sigma_outlet_sleeve = 3.6192E7, rho_outlet_sleeve = 2749.2, Cp_inlet_sleeve = 944.3, k_inlet_sleeve = 152.05, sigma_inlet_sleeve = 3.9282E7, rho_inlet_sleeve = 2885) (degC), Point: 138Temperature (Cp_Al = 845.8, k_Al = 174.04, sigma_Al = 4.0228E7, rho_Al = 2457.2, Cp_inlet = 921.71, k_inlet = 158.25, sigma_inlet = 4.0593E7, rho_inlet = 2632.4, Cp_outlet = 883.92, k_outlet = 149.6, sigma_outlet = 3.909E7, rho_outlet = 2578.1, Cp_outlet_sleeve = 957.16, k_outlet_sleeve = 167.45, sigma_outlet_sleeve = 3.6192E7, rho_outlet_sleeve = 2749.2, Cp_inlet_sleeve = 944.3, k_inlet_sleeve = 152.05, sigma_inlet_sleeve = 3.9282E7, rho_inlet_sleeve = 2885) (degC), Point: 151Temperature (Cp_Al = 845.8, k_Al = 174.04, sigma_Al = 4.0228E7, rho_Al = 2457.2, Cp_inlet = 921.71, k_inlet = 158.25, sigma_inlet = 4.0593E7, rho_inlet = 2632.4, Cp_outlet = 883.92, k_outlet = 149.6, sigma_outlet = 3.909E7, rho_outlet = 2578.1, Cp_outlet_sleeve = 957.16, k_outlet_sleeve = 167.45, sigma_outlet_sleeve = 3.6192E7, rho_outlet_sleeve = 2749.2, Cp_inlet_sleeve = 944.3, k_inlet_sleeve = 152.05, sigma_inlet_sleeve = 3.9282E7, rho_inlet_sleeve = 2885) (degC), Point: 154Temperature (Cp_Al = 845.8, k_Al = 174.04, sigma_Al = 4.0228E7, rho_Al = 2457.2, Cp_inlet = 921.71, k_inlet = 158.25, sigma_inlet = 4.0593E7, rho_inlet = 2632.4, Cp_outlet = 883.92, k_outlet = 149.6, sigma_outlet = 3.909E7, rho_outlet = 2578.1, Cp_outlet_sleeve = 957.16, k_outlet_sleeve = 167.45, sigma_outlet_sleeve = 3.6192E7, rho_outlet_sleeve = 2749.2, Cp_inlet_sleeve = 944.3, k_inlet_sleeve = 152.05, sigma_inlet_sleeve = 3.9282E7, rho_inlet_sleeve = 2885) (degC), Point: 159Temperature (Cp_Al = 845.8, k_Al = 174.04, sigma_Al = 4.0228E7, rho_Al = 2457.2, Cp_inlet = 921.71, k_inlet = 158.25, sigma_inlet = 4.0593E7, rho_inlet = 2632.4, Cp_outlet = 883.92, k_outlet = 149.6, sigma_outlet = 3.909E7, rho_outlet = 2578.1, Cp_outlet_sleeve = 957.16, k_outlet_sleeve = 167.45, sigma_outlet_sleeve = 3.6192E7, rho_outlet_sleeve = 2749.2, Cp_inlet_sleeve = 944.3, k_inlet_sleeve = 152.05, sigma_inlet_sleeve = 3.9282E7, rho_inlet_sleeve = 2885) (degC), Point: 163Temperature (Cp_Al = 845.8, k_Al = 174.04, sigma_Al = 4.0228E7, rho_Al = 2457.2, Cp_inlet = 921.71, k_inlet = 158.25, sigma_inlet = 4.0593E7, rho_inlet = 2632.4, Cp_outlet = 883.92, k_outlet = 149.6, sigma_outlet = 3.909E7, rho_outlet = 2578.1, Cp_outlet_sleeve = 957.16, k_outlet_sleeve = 167.45, sigma_outlet_sleeve = 3.6192E7, rho_outlet_sleeve = 2749.2, Cp_inlet_sleeve = 944.3, k_inlet_sleeve = 152.05, sigma_inlet_sleeve = 3.9282E7, rho_inlet_sleeve = 2885) (degC), Point: 167Temperature (Cp_Al = 845.8, k_Al = 174.04, sigma_Al = 4.0228E7, rho_Al = 2457.2, Cp_inlet = 921.71, k_inlet = 158.25, sigma_inlet = 4.0593E7, rho_inlet = 2632.4, Cp_outlet = 883.92, k_outlet = 149.6, sigma_outlet = 3.909E7, rho_outlet = 2578.1, Cp_outlet_sleeve = 957.16, k_outlet_sleeve = 167.45, sigma_outlet_sleeve = 3.6192E7, rho_outlet_sleeve = 2749.2, Cp_inlet_sleeve = 944.3, k_inlet_sleeve = 152.05, sigma_inlet_sleeve = 3.9282E7, rho_inlet_sleeve = 2885) (degC), Point: 168Temperature (Cp_Al = 845.8, k_Al = 174.04, sigma_Al = 4.0228E7, rho_Al = 2457.2, Cp_inlet = 921.71, k_inlet = 158.25, sigma_inlet = 4.0593E7, rho_inlet = 2632.4, Cp_outlet = 883.92, k_outlet = 149.6, sigma_outlet = 3.909E7, rho_outlet = 2578.1, Cp_outlet_sleeve = 957.16, k_outlet_sleeve = 167.45, sigma_outlet_sleeve = 3.6192E7, rho_outlet_sleeve = 2749.2, Cp_inlet_sleeve = 944.3, k_inlet_sleeve = 152.05, sigma_inlet_sleeve = 3.9282E7, rho_inlet_sleeve = 2885) (degC), Point: 172Temperature (Cp_Al = 845.8, k_Al = 174.04, sigma_Al = 4.0228E7, rho_Al = 2457.2, Cp_inlet = 921.71, k_inlet = 158.25, sigma_inlet = 4.0593E7, rho_inlet = 2632.4, Cp_outlet = 883.92, k_outlet = 149.6, sigma_outlet = 3.909E7, rho_outlet = 2578.1, Cp_outlet_sleeve = 957.16, k_outlet_sleeve = 167.45, sigma_outlet_sleeve = 3.6192E7, rho_outlet_sleeve = 2749.2, Cp_inlet_sleeve = 944.3, k_inlet_sleeve = 152.05, sigma_inlet_sleeve = 3.9282E7, rho_inlet_sleeve = 2885) (degC), Point: 181Temperature (Cp_Al = 845.8, k_Al = 174.04, sigma_Al = 4.0228E7, rho_Al = 2457.2, Cp_inlet = 921.71, k_inlet = 158.25, sigma_inlet = 4.0593E7, rho_inlet = 2632.4, Cp_outlet = 883.92, k_outlet = 149.6, sigma_outlet = 3.909E7, rho_outlet = 2578.1, Cp_outlet_sleeve = 957.16, k_outlet_sleeve = 167.45, sigma_outlet_sleeve = 3.6192E7, rho_outlet_sleeve = 2749.2, Cp_inlet_sleeve = 944.3, k_inlet_sleeve = 152.05, sigma_inlet_sleeve = 3.9282E7, rho_inlet_sleeve = 2885) (degC), Point: 201Temperature (Cp_Al = 845.8, k_Al = 174.04, sigma_Al = 4.0228E7, rho_Al = 2457.2, Cp_inlet = 921.71, k_inlet = 158.25, sigma_inlet = 4.0593E7, rho_inlet = 2632.4, Cp_outlet = 883.92, k_outlet = 149.6, sigma_outlet = 3.909E7, rho_outlet = 2578.1, Cp_outlet_sleeve = 957.16, k_outlet_sleeve = 167.45, sigma_outlet_sleeve = 3.6192E7, rho_outlet_sleeve = 2749.2, Cp_inlet_sleeve = 944.3, k_inlet_sleeve = 152.05, sigma_inlet_sleeve = 3.9282E7, rho_inlet_sleeve = 2885) (degC), Point: 210Temperature (Cp_Al = 845.8, k_Al = 174.04, sigma_Al = 4.0228E7, rho_Al = 2457.2, Cp_inlet = 921.71, k_inlet = 158.25, sigma_inlet = 4.0593E7, rho_inlet = 2632.4, Cp_outlet = 883.92, k_outlet = 149.6, sigma_outlet = 3.909E7, rho_outlet = 2578.1, Cp_outlet_sleeve = 957.16, k_outlet_sleeve = 167.45, sigma_outlet_sleeve = 3.6192E7, rho_outlet_sleeve = 2749.2, Cp_inlet_sleeve = 944.3, k_inlet_sleeve = 152.05, sigma_inlet_sleeve = 3.9282E7, rho_inlet_sleeve = 2885) (degC), Point: 213Temperature (Cp_Al = 845.8, k_Al = 174.04, sigma_Al = 4.0228E7, rho_Al = 2457.2, Cp_inlet = 921.71, k_inlet = 158.25, sigma_inlet = 4.0593E7, rho_inlet = 2632.4, Cp_outlet = 883.92, k_outlet = 149.6, sigma_outlet = 3.909E7, rho_outlet = 2578.1, Cp_outlet_sleeve = 957.16, k_outlet_sleeve = 167.45, sigma_outlet_sleeve = 3.6192E7, rho_outlet_sleeve = 2749.2, Cp_inlet_sleeve = 944.3, k_inlet_sleeve = 152.05, sigma_inlet_sleeve = 3.9282E7, rho_inlet_sleeve = 2885) (degC), Point: 215Temperature (Cp_Al = 845.8, k_Al = 174.04, sigma_Al = 4.0228E7, rho_Al = 2457.2, Cp_inlet = 921.71, k_inlet = 158.25, sigma_inlet = 4.0593E7, rho_inlet = 2632.4, Cp_outlet = 883.92, k_outlet = 149.6, sigma_outlet = 3.909E7, rho_outlet = 2578.1, Cp_outlet_sleeve = 957.16, k_outlet_sleeve = 167.45, sigma_outlet_sleeve = 3.6192E7, rho_outlet_sleeve = 2749.2, Cp_inlet_sleeve = 944.3, k_inlet_sleeve = 152.05, sigma_inlet_sleeve = 3.9282E7, rho_inlet_sleeve = 2885) (degC), Point: 229Temperature (Cp_Al = 845.8, k_Al = 174.04, sigma_Al = 4.0228E7, rho_Al = 2457.2, Cp_inlet = 921.71, k_inlet = 158.25, sigma_inlet = 4.0593E7, rho_inlet = 2632.4, Cp_outlet = 883.92, k_outlet = 149.6, sigma_outlet = 3.909E7, rho_outlet = 2578.1, Cp_outlet_sleeve = 957.16, k_outlet_sleeve = 167.45, sigma_outlet_sleeve = 3.6192E7, rho_outlet_sleeve = 2749.2, Cp_inlet_sleeve = 944.3, k_inlet_sleeve = 152.05, sigma_inlet_sleeve = 3.9282E7, rho_inlet_sleeve = 2885) (degC), Point: 232Temperature (Cp_Al = 845.8, k_Al = 174.04, sigma_Al = 4.0228E7, rho_Al = 2457.2, Cp_inlet = 921.71, k_inlet = 158.25, sigma_inlet = 4.0593E7, rho_inlet = 2632.4, Cp_outlet = 883.92, k_outlet = 149.6, sigma_outlet = 3.909E7, rho_outlet = 2578.1, Cp_outlet_sleeve = 957.16, k_outlet_sleeve = 167.45, sigma_outlet_sleeve = 3.6192E7, rho_outlet_sleeve = 2749.2, Cp_inlet_sleeve = 944.3, k_inlet_sleeve = 152.05, sigma_inlet_sleeve = 3.9282E7, rho_inlet_sleeve = 2885) (degC), Point: 239Temperature (Cp_Al = 845.8, k_Al = 174.04, sigma_Al = 4.0228E7, rho_Al = 2457.2, Cp_inlet = 921.71, k_inlet = 158.25, sigma_inlet = 4.0593E7, rho_inlet = 2632.4, Cp_outlet = 883.92, k_outlet = 149.6, sigma_outlet = 3.909E7, rho_outlet = 2578.1, Cp_outlet_sleeve = 957.16, k_outlet_sleeve = 167.45, sigma_outlet_sleeve = 3.6192E7, rho_outlet_sleeve = 2749.2, Cp_inlet_sleeve = 944.3, k_inlet_sleeve = 152.05, sigma_inlet_sleeve = 3.9282E7, rho_inlet_sleeve = 2885) (degC), Point: 252Temperature (Cp_Al = 845.8, k_Al = 174.04, sigma_Al = 4.0228E7, rho_Al = 2457.2, Cp_inlet = 921.71, k_inlet = 158.25, sigma_inlet = 4.0593E7, rho_inlet = 2632.4, Cp_outlet = 883.92, k_outlet = 149.6, sigma_outlet = 3.909E7, rho_outlet = 2578.1, Cp_outlet_sleeve = 957.16, k_outlet_sleeve = 167.45, sigma_outlet_sleeve = 3.6192E7, rho_outlet_sleeve = 2749.2, Cp_inlet_sleeve = 944.3, k_inlet_sleeve = 152.05, sigma_inlet_sleeve = 3.9282E7, rho_inlet_sleeve = 2885) (degC), Point: 261Temperature (Cp_Al = 845.8, k_Al = 174.04, sigma_Al = 4.0228E7, rho_Al = 2457.2, Cp_inlet = 921.71, k_inlet = 158.25, sigma_inlet = 4.0593E7, rho_inlet = 2632.4, Cp_outlet = 883.92, k_outlet = 149.6, sigma_outlet = 3.909E7, rho_outlet = 2578.1, Cp_outlet_sleeve = 957.16, k_outlet_sleeve = 167.45, sigma_outlet_sleeve = 3.6192E7, rho_outlet_sleeve = 2749.2, Cp_inlet_sleeve = 944.3, k_inlet_sleeve = 152.05, sigma_inlet_sleeve = 3.9282E7, rho_inlet_sleeve = 2885) (degC), Point: 270Temperature (Cp_Al = 845.8, k_Al = 174.04, sigma_Al = 4.0228E7, rho_Al = 2457.2, Cp_inlet = 921.71, k_inlet = 158.25, sigma_inlet = 4.0593E7, rho_inlet = 2632.4, Cp_outlet = 883.92, k_outlet = 149.6, sigma_outlet = 3.909E7, rho_outlet = 2578.1, Cp_outlet_sleeve = 957.16, k_outlet_sleeve = 167.45, sigma_outlet_sleeve = 3.6192E7, rho_outlet_sleeve = 2749.2, Cp_inlet_sleeve = 944.3, k_inlet_sleeve = 152.05, sigma_inlet_sleeve = 3.9282E7, rho_inlet_sleeve = 2885) (degC), Point: 273Temperature (Cp_Al = 845.8, k_Al = 174.04, sigma_Al = 4.0228E7, rho_Al = 2457.2, Cp_inlet = 921.71, k_inlet = 158.25, sigma_inlet = 4.0593E7, rho_inlet = 2632.4, Cp_outlet = 883.92, k_outlet = 149.6, sigma_outlet = 3.909E7, rho_outlet = 2578.1, Cp_outlet_sleeve = 957.16, k_outlet_sleeve = 167.45, sigma_outlet_sleeve = 3.6192E7, rho_outlet_sleeve = 2749.2, Cp_inlet_sleeve = 944.3, k_inlet_sleeve = 152.05, sigma_inlet_sleeve = 3.9282E7, rho_inlet_sleeve = 2885) (degC), Point: 275
0                        21.528212109777996       21.01035648697348        21.131115258494503       21.008344333547996       21.012150111840185       21.10733173179267        21.008054318371705       21.022347943478792       21.0012769793982         21.024341150790974       21.001142149862915       21.00061186111401        21.009491382042484       21.000101725033403       21.006662759210485       21.01727940671759        21.000049701112516       21.01149255096857        21.000708363123294       21.000288207868834       21.001764943970954       21.000147627816204       21.000218668496302       21.00805928571549        21.11775533791075        21.011672109862502       21.47710908404912        21.00822847605872        21.143910199489085       21.013094204717163       21.58775597490643
3                        287.00885553124976       253.62254428869824       264.2793690455702        260.0587282197595        246.15942733141867       257.53004303975354       255.39702013712258       244.89584182484805       240.42405444164956       250.20933619002778       251.81204625582825       243.64008924366874       241.38254375682436       229.69997919035512       234.27294637130558       221.324366963628         216.83877386799338       226.59207947091522       228.37537256058954       222.15544990841062       220.9489250512131        213.60973543011863       216.38003039699788       257.43565341857925       260.01774874639284       247.79746818576461       281.6807835029489        261.93156130872467       266.40159575400696       253.19158373672667       291.35660437594413
6                        406.9179377812276        372.059434869489         386.1485301001212        382.5665181767156        367.4297452006996        383.33181736022084       382.10354875019823       367.9938454805248        361.54727328989713       375.9131050061709        378.4254723178085        370.2428659292152        367.08041424427324       350.8149849622614        357.3532756431092        340.14196596118086       334.1191207553637        347.47134800446076       349.92518206467855       343.5439428797637        341.72429148311664       330.9560482455173        335.20915631744367       383.9537843303211        385.60913652732665       368.76411207560227       404.6372666972777        382.22218757664007       386.0404238889363        369.18361468894193       408.9198871782079
9                        478.49207905898265       442.7334781709254        459.3885546020043        456.49746699773505       437.3243052184233        456.4226418661002        456.0508910888756        438.9652939474912        431.35678929070855       448.95145883352325       452.3233826363004        444.1376936547297        440.11736080522326       420.6213755130469        428.3121833254877        410.896111963929         403.9336723152238        419.96366170376587       423.13352244965597       416.8896323645341        414.3860109373396        401.035047425711         406.1980066179133        457.8076672842209        458.58612208118825       438.4843538818852        475.52667950638147       454.81961430559136       457.92772718076117       438.3497542152659        479.0510866039348
12                       526.7523157716447        490.39588087865604       508.9502012791047        506.6427436324584        483.37984057377616       504.70465920473964       505.0022590931428        485.7025558958053        477.3619237888262        497.20404103797625       501.24718119597014       493.05921587371563       488.36783357821355       466.6214386607144        475.0374908555988        458.69244332730557       451.106680665324         469.11039846352696       472.882293369272         466.7161996138062        463.6248546476771        448.3472015187989        454.1167025100891        506.70835747618037       506.8014054563239        484.43314378782225       522.2115851921814        504.2357299406798        506.7369758534362        485.1400622030701        526.4837141432112
15                       563.594304371899         526.8030748015353        546.824533669627         544.9964641281141        518.1542309912015        541.1097030189328        541.9237065812312        520.951596491274         512.1027227883262        533.5900119142946        538.1508660078993        529.9639331432176        524.7546834430336        501.3606635458266        510.2798066588646        495.24550140737017       487.2075751396226        506.73072347381606       510.9958802425541        504.90113855798404       501.32181912899193       484.54692493160917       490.75888420943          543.600554184593         543.1647797134898        519.1381199902843        557.4271478115926        542.1720191075038        544.1707726984007        521.011351823519         562.8221865178799
18                       593.2643911931762        556.1452379538433        577.332312502182         575.9035265508816        545.9301177566801        570.1131545715582        571.3327854221067        549.069554005603         539.8562827721524        562.5812684194844        567.5486593227846        559.3641713155899        553.7480607282054        529.1142762918039        538.3938553754558        524.7323441300749        516.3544727710452        537.0808760716784        541.7560774643448        535.7316328917038        531.7426612653632        513.772889113444         520.319226549141         572.9936527102583        572.1425280842404        546.8689065920104        585.5236055081502        572.8506387671518        574.4284314143631        550.0267837799593        592.1894267670115
21                       618.5754934956539        581.197119764642         603.3425123080491        602.2528102007985        569.5125257451564        594.6596948754456        596.2082163282024        572.9117054694367        563.4235540418415        587.1199274856718        592.4168438259308        584.2353566393889        578.2893325340142        552.6824095644465        562.2336961884432        549.9230702413229        541.2774046757949        562.990117040068         568.0129629396005        562.0559580131826        557.7174216336746        538.7628382228196        545.5736333125269        597.8609702293121        596.6731509102058        570.4215148691947        609.3516897143832        599.0796108748707        600.2988182551827        574.8768350064597        617.3166525480405
24                       641.1754512456133        603.5840748668779        626.5385864100043        625.7411551282393        590.5411339374729        616.4765566914381        618.3001541091439        594.1475428948639        584.441614506779         608.9316040998965        614.5040442846298        606.3257030535548        600.1037592739942        573.7017301233101        583.4681552192437        572.4408046154126        563.5758224001456        586.1190997893008        591.4411525989195        585.5465976883993        580.9060160410544        561.1192354906154        568.1471897315923        619.9494146368958        618.4800888225285        591.4299771027441        630.5781008266387        622.508329864149         623.4181735844247        597.1365088344403        639.803095727383
27                       661.990937727873         624.2202035374347        647.8685640532599        647.3250089623857        609.944328547348         636.5437068131013        638.602730177026         613.7222663909185        603.837239155349         628.9952749236234        634.8034616607035        626.6281988070641        620.1701304466751        593.0987766873736        603.0420464003557        593.1979073705336        584.1487758145269        607.4027587359576        612.9843881740397        607.1462858729444        602.2430629635538        581.742685933464         588.9532765189698        640.2511831567225        638.541016784317         610.8191987317376        650.1463358952593        644.0663270254415        644.7075120326263        617.6904345158583        660.5471467685339
