% Model:              brazing.mph
% Version:            COMSOL 5.3.0.223
% Date:               Oct 23 2018, 13:24
% Table:              Table 3 - 
% Time (s)               Temperature (Cp_Al = 829.2, k_Al = 173.9, sigma_Al = 4.0928E7, rho_Al = 2437.5, Cp_inlet = 927.6, k_inlet = 158.1, sigma_inlet = 4.133E7, rho_inlet = 2642.4, Cp_outlet = 888.1, k_outlet = 150.1, sigma_outlet = 3.9291E7, rho_outlet = 2576.1, Cp_outlet_sleeve = 968.1, k_outlet_sleeve = 167.4, sigma_outlet_sleeve = 3.6535E7, rho_outlet_sleeve = 2782.4, Cp_inlet_sleeve = 948.6, k_inlet_sleeve = 152.3, sigma_inlet_sleeve = 3.9816E7, rho_inlet_sleeve = 2905.8) (degC), Point: 55Temperature (Cp_Al = 829.2, k_Al = 173.9, sigma_Al = 4.0928E7, rho_Al = 2437.5, Cp_inlet = 927.6, k_inlet = 158.1, sigma_inlet = 4.133E7, rho_inlet = 2642.4, Cp_outlet = 888.1, k_outlet = 150.1, sigma_outlet = 3.9291E7, rho_outlet = 2576.1, Cp_outlet_sleeve = 968.1, k_outlet_sleeve = 167.4, sigma_outlet_sleeve = 3.6535E7, rho_outlet_sleeve = 2782.4, Cp_inlet_sleeve = 948.6, k_inlet_sleeve = 152.3, sigma_inlet_sleeve = 3.9816E7, rho_inlet_sleeve = 2905.8) (degC), Point: 56Temperature (Cp_Al = 829.2, k_Al = 173.9, sigma_Al = 4.0928E7, rho_Al = 2437.5, Cp_inlet = 927.6, k_inlet = 158.1, sigma_inlet = 4.133E7, rho_inlet = 2642.4, Cp_outlet = 888.1, k_outlet = 150.1, sigma_outlet = 3.9291E7, rho_outlet = 2576.1, Cp_outlet_sleeve = 968.1, k_outlet_sleeve = 167.4, sigma_outlet_sleeve = 3.6535E7, rho_outlet_sleeve = 2782.4, Cp_inlet_sleeve = 948.6, k_inlet_sleeve = 152.3, sigma_inlet_sleeve = 3.9816E7, rho_inlet_sleeve = 2905.8) (degC), Point: 60Temperature (Cp_Al = 829.2, k_Al = 173.9, sigma_Al = 4.0928E7, rho_Al = 2437.5, Cp_inlet = 927.6, k_inlet = 158.1, sigma_inlet = 4.133E7, rho_inlet = 2642.4, Cp_outlet = 888.1, k_outlet = 150.1, sigma_outlet = 3.9291E7, rho_outlet = 2576.1, Cp_outlet_sleeve = 968.1, k_outlet_sleeve = 167.4, sigma_outlet_sleeve = 3.6535E7, rho_outlet_sleeve = 2782.4, Cp_inlet_sleeve = 948.6, k_inlet_sleeve = 152.3, sigma_inlet_sleeve = 3.9816E7, rho_inlet_sleeve = 2905.8) (degC), Point: 69Temperature (Cp_Al = 829.2, k_Al = 173.9, sigma_Al = 4.0928E7, rho_Al = 2437.5, Cp_inlet = 927.6, k_inlet = 158.1, sigma_inlet = 4.133E7, rho_inlet = 2642.4, Cp_outlet = 888.1, k_outlet = 150.1, sigma_outlet = 3.9291E7, rho_outlet = 2576.1, Cp_outlet_sleeve = 968.1, k_outlet_sleeve = 167.4, sigma_outlet_sleeve = 3.6535E7, rho_outlet_sleeve = 2782.4, Cp_inlet_sleeve = 948.6, k_inlet_sleeve = 152.3, sigma_inlet_sleeve = 3.9816E7, rho_inlet_sleeve = 2905.8) (degC), Point: 90Temperature (Cp_Al = 829.2, k_Al = 173.9, sigma_Al = 4.0928E7, rho_Al = 2437.5, Cp_inlet = 927.6, k_inlet = 158.1, sigma_inlet = 4.133E7, rho_inlet = 2642.4, Cp_outlet = 888.1, k_outlet = 150.1, sigma_outlet = 3.9291E7, rho_outlet = 2576.1, Cp_outlet_sleeve = 968.1, k_outlet_sleeve = 167.4, sigma_outlet_sleeve = 3.6535E7, rho_outlet_sleeve = 2782.4, Cp_inlet_sleeve = 948.6, k_inlet_sleeve = 152.3, sigma_inlet_sleeve = 3.9816E7, rho_inlet_sleeve = 2905.8) (degC), Point: 98Temperature (Cp_Al = 829.2, k_Al = 173.9, sigma_Al = 4.0928E7, rho_Al = 2437.5, Cp_inlet = 927.6, k_inlet = 158.1, sigma_inlet = 4.133E7, rho_inlet = 2642.4, Cp_outlet = 888.1, k_outlet = 150.1, sigma_outlet = 3.9291E7, rho_outlet = 2576.1, Cp_outlet_sleeve = 968.1, k_outlet_sleeve = 167.4, sigma_outlet_sleeve = 3.6535E7, rho_outlet_sleeve = 2782.4, Cp_inlet_sleeve = 948.6, k_inlet_sleeve = 152.3, sigma_inlet_sleeve = 3.9816E7, rho_inlet_sleeve = 2905.8) (degC), Point: 102Temperature (Cp_Al = 829.2, k_Al = 173.9, sigma_Al = 4.0928E7, rho_Al = 2437.5, Cp_inlet = 927.6, k_inlet = 158.1, sigma_inlet = 4.133E7, rho_inlet = 2642.4, Cp_outlet = 888.1, k_outlet = 150.1, sigma_outlet = 3.9291E7, rho_outlet = 2576.1, Cp_outlet_sleeve = 968.1, k_outlet_sleeve = 167.4, sigma_outlet_sleeve = 3.6535E7, rho_outlet_sleeve = 2782.4, Cp_inlet_sleeve = 948.6, k_inlet_sleeve = 152.3, sigma_inlet_sleeve = 3.9816E7, rho_inlet_sleeve = 2905.8) (degC), Point: 127Temperature (Cp_Al = 829.2, k_Al = 173.9, sigma_Al = 4.0928E7, rho_Al = 2437.5, Cp_inlet = 927.6, k_inlet = 158.1, sigma_inlet = 4.133E7, rho_inlet = 2642.4, Cp_outlet = 888.1, k_outlet = 150.1, sigma_outlet = 3.9291E7, rho_outlet = 2576.1, Cp_outlet_sleeve = 968.1, k_outlet_sleeve = 167.4, sigma_outlet_sleeve = 3.6535E7, rho_outlet_sleeve = 2782.4, Cp_inlet_sleeve = 948.6, k_inlet_sleeve = 152.3, sigma_inlet_sleeve = 3.9816E7, rho_inlet_sleeve = 2905.8) (degC), Point: 128Temperature (Cp_Al = 829.2, k_Al = 173.9, sigma_Al = 4.0928E7, rho_Al = 2437.5, Cp_inlet = 927.6, k_inlet = 158.1, sigma_inlet = 4.133E7, rho_inlet = 2642.4, Cp_outlet = 888.1, k_outlet = 150.1, sigma_outlet = 3.9291E7, rho_outlet = 2576.1, Cp_outlet_sleeve = 968.1, k_outlet_sleeve = 167.4, sigma_outlet_sleeve = 3.6535E7, rho_outlet_sleeve = 2782.4, Cp_inlet_sleeve = 948.6, k_inlet_sleeve = 152.3, sigma_inlet_sleeve = 3.9816E7, rho_inlet_sleeve = 2905.8) (degC), Point: 134Temperature (Cp_Al = 829.2, k_Al = 173.9, sigma_Al = 4.0928E7, rho_Al = 2437.5, Cp_inlet = 927.6, k_inlet = 158.1, sigma_inlet = 4.133E7, rho_inlet = 2642.4, Cp_outlet = 888.1, k_outlet = 150.1, sigma_outlet = 3.9291E7, rho_outlet = 2576.1, Cp_outlet_sleeve = 968.1, k_outlet_sleeve = 167.4, sigma_outlet_sleeve = 3.6535E7, rho_outlet_sleeve = 2782.4, Cp_inlet_sleeve = 948.6, k_inlet_sleeve = 152.3, sigma_inlet_sleeve = 3.9816E7, rho_inlet_sleeve = 2905.8) (degC), Point: 138Temperature (Cp_Al = 829.2, k_Al = 173.9, sigma_Al = 4.0928E7, rho_Al = 2437.5, Cp_inlet = 927.6, k_inlet = 158.1, sigma_inlet = 4.133E7, rho_inlet = 2642.4, Cp_outlet = 888.1, k_outlet = 150.1, sigma_outlet = 3.9291E7, rho_outlet = 2576.1, Cp_outlet_sleeve = 968.1, k_outlet_sleeve = 167.4, sigma_outlet_sleeve = 3.6535E7, rho_outlet_sleeve = 2782.4, Cp_inlet_sleeve = 948.6, k_inlet_sleeve = 152.3, sigma_inlet_sleeve = 3.9816E7, rho_inlet_sleeve = 2905.8) (degC), Point: 151Temperature (Cp_Al = 829.2, k_Al = 173.9, sigma_Al = 4.0928E7, rho_Al = 2437.5, Cp_inlet = 927.6, k_inlet = 158.1, sigma_inlet = 4.133E7, rho_inlet = 2642.4, Cp_outlet = 888.1, k_outlet = 150.1, sigma_outlet = 3.9291E7, rho_outlet = 2576.1, Cp_outlet_sleeve = 968.1, k_outlet_sleeve = 167.4, sigma_outlet_sleeve = 3.6535E7, rho_outlet_sleeve = 2782.4, Cp_inlet_sleeve = 948.6, k_inlet_sleeve = 152.3, sigma_inlet_sleeve = 3.9816E7, rho_inlet_sleeve = 2905.8) (degC), Point: 154Temperature (Cp_Al = 829.2, k_Al = 173.9, sigma_Al = 4.0928E7, rho_Al = 2437.5, Cp_inlet = 927.6, k_inlet = 158.1, sigma_inlet = 4.133E7, rho_inlet = 2642.4, Cp_outlet = 888.1, k_outlet = 150.1, sigma_outlet = 3.9291E7, rho_outlet = 2576.1, Cp_outlet_sleeve = 968.1, k_outlet_sleeve = 167.4, sigma_outlet_sleeve = 3.6535E7, rho_outlet_sleeve = 2782.4, Cp_inlet_sleeve = 948.6, k_inlet_sleeve = 152.3, sigma_inlet_sleeve = 3.9816E7, rho_inlet_sleeve = 2905.8) (degC), Point: 159Temperature (Cp_Al = 829.2, k_Al = 173.9, sigma_Al = 4.0928E7, rho_Al = 2437.5, Cp_inlet = 927.6, k_inlet = 158.1, sigma_inlet = 4.133E7, rho_inlet = 2642.4, Cp_outlet = 888.1, k_outlet = 150.1, sigma_outlet = 3.9291E7, rho_outlet = 2576.1, Cp_outlet_sleeve = 968.1, k_outlet_sleeve = 167.4, sigma_outlet_sleeve = 3.6535E7, rho_outlet_sleeve = 2782.4, Cp_inlet_sleeve = 948.6, k_inlet_sleeve = 152.3, sigma_inlet_sleeve = 3.9816E7, rho_inlet_sleeve = 2905.8) (degC), Point: 163Temperature (Cp_Al = 829.2, k_Al = 173.9, sigma_Al = 4.0928E7, rho_Al = 2437.5, Cp_inlet = 927.6, k_inlet = 158.1, sigma_inlet = 4.133E7, rho_inlet = 2642.4, Cp_outlet = 888.1, k_outlet = 150.1, sigma_outlet = 3.9291E7, rho_outlet = 2576.1, Cp_outlet_sleeve = 968.1, k_outlet_sleeve = 167.4, sigma_outlet_sleeve = 3.6535E7, rho_outlet_sleeve = 2782.4, Cp_inlet_sleeve = 948.6, k_inlet_sleeve = 152.3, sigma_inlet_sleeve = 3.9816E7, rho_inlet_sleeve = 2905.8) (degC), Point: 167Temperature (Cp_Al = 829.2, k_Al = 173.9, sigma_Al = 4.0928E7, rho_Al = 2437.5, Cp_inlet = 927.6, k_inlet = 158.1, sigma_inlet = 4.133E7, rho_inlet = 2642.4, Cp_outlet = 888.1, k_outlet = 150.1, sigma_outlet = 3.9291E7, rho_outlet = 2576.1, Cp_outlet_sleeve = 968.1, k_outlet_sleeve = 167.4, sigma_outlet_sleeve = 3.6535E7, rho_outlet_sleeve = 2782.4, Cp_inlet_sleeve = 948.6, k_inlet_sleeve = 152.3, sigma_inlet_sleeve = 3.9816E7, rho_inlet_sleeve = 2905.8) (degC), Point: 168Temperature (Cp_Al = 829.2, k_Al = 173.9, sigma_Al = 4.0928E7, rho_Al = 2437.5, Cp_inlet = 927.6, k_inlet = 158.1, sigma_inlet = 4.133E7, rho_inlet = 2642.4, Cp_outlet = 888.1, k_outlet = 150.1, sigma_outlet = 3.9291E7, rho_outlet = 2576.1, Cp_outlet_sleeve = 968.1, k_outlet_sleeve = 167.4, sigma_outlet_sleeve = 3.6535E7, rho_outlet_sleeve = 2782.4, Cp_inlet_sleeve = 948.6, k_inlet_sleeve = 152.3, sigma_inlet_sleeve = 3.9816E7, rho_inlet_sleeve = 2905.8) (degC), Point: 172Temperature (Cp_Al = 829.2, k_Al = 173.9, sigma_Al = 4.0928E7, rho_Al = 2437.5, Cp_inlet = 927.6, k_inlet = 158.1, sigma_inlet = 4.133E7, rho_inlet = 2642.4, Cp_outlet = 888.1, k_outlet = 150.1, sigma_outlet = 3.9291E7, rho_outlet = 2576.1, Cp_outlet_sleeve = 968.1, k_outlet_sleeve = 167.4, sigma_outlet_sleeve = 3.6535E7, rho_outlet_sleeve = 2782.4, Cp_inlet_sleeve = 948.6, k_inlet_sleeve = 152.3, sigma_inlet_sleeve = 3.9816E7, rho_inlet_sleeve = 2905.8) (degC), Point: 181Temperature (Cp_Al = 829.2, k_Al = 173.9, sigma_Al = 4.0928E7, rho_Al = 2437.5, Cp_inlet = 927.6, k_inlet = 158.1, sigma_inlet = 4.133E7, rho_inlet = 2642.4, Cp_outlet = 888.1, k_outlet = 150.1, sigma_outlet = 3.9291E7, rho_outlet = 2576.1, Cp_outlet_sleeve = 968.1, k_outlet_sleeve = 167.4, sigma_outlet_sleeve = 3.6535E7, rho_outlet_sleeve = 2782.4, Cp_inlet_sleeve = 948.6, k_inlet_sleeve = 152.3, sigma_inlet_sleeve = 3.9816E7, rho_inlet_sleeve = 2905.8) (degC), Point: 201Temperature (Cp_Al = 829.2, k_Al = 173.9, sigma_Al = 4.0928E7, rho_Al = 2437.5, Cp_inlet = 927.6, k_inlet = 158.1, sigma_inlet = 4.133E7, rho_inlet = 2642.4, Cp_outlet = 888.1, k_outlet = 150.1, sigma_outlet = 3.9291E7, rho_outlet = 2576.1, Cp_outlet_sleeve = 968.1, k_outlet_sleeve = 167.4, sigma_outlet_sleeve = 3.6535E7, rho_outlet_sleeve = 2782.4, Cp_inlet_sleeve = 948.6, k_inlet_sleeve = 152.3, sigma_inlet_sleeve = 3.9816E7, rho_inlet_sleeve = 2905.8) (degC), Point: 210Temperature (Cp_Al = 829.2, k_Al = 173.9, sigma_Al = 4.0928E7, rho_Al = 2437.5, Cp_inlet = 927.6, k_inlet = 158.1, sigma_inlet = 4.133E7, rho_inlet = 2642.4, Cp_outlet = 888.1, k_outlet = 150.1, sigma_outlet = 3.9291E7, rho_outlet = 2576.1, Cp_outlet_sleeve = 968.1, k_outlet_sleeve = 167.4, sigma_outlet_sleeve = 3.6535E7, rho_outlet_sleeve = 2782.4, Cp_inlet_sleeve = 948.6, k_inlet_sleeve = 152.3, sigma_inlet_sleeve = 3.9816E7, rho_inlet_sleeve = 2905.8) (degC), Point: 213Temperature (Cp_Al = 829.2, k_Al = 173.9, sigma_Al = 4.0928E7, rho_Al = 2437.5, Cp_inlet = 927.6, k_inlet = 158.1, sigma_inlet = 4.133E7, rho_inlet = 2642.4, Cp_outlet = 888.1, k_outlet = 150.1, sigma_outlet = 3.9291E7, rho_outlet = 2576.1, Cp_outlet_sleeve = 968.1, k_outlet_sleeve = 167.4, sigma_outlet_sleeve = 3.6535E7, rho_outlet_sleeve = 2782.4, Cp_inlet_sleeve = 948.6, k_inlet_sleeve = 152.3, sigma_inlet_sleeve = 3.9816E7, rho_inlet_sleeve = 2905.8) (degC), Point: 215Temperature (Cp_Al = 829.2, k_Al = 173.9, sigma_Al = 4.0928E7, rho_Al = 2437.5, Cp_inlet = 927.6, k_inlet = 158.1, sigma_inlet = 4.133E7, rho_inlet = 2642.4, Cp_outlet = 888.1, k_outlet = 150.1, sigma_outlet = 3.9291E7, rho_outlet = 2576.1, Cp_outlet_sleeve = 968.1, k_outlet_sleeve = 167.4, sigma_outlet_sleeve = 3.6535E7, rho_outlet_sleeve = 2782.4, Cp_inlet_sleeve = 948.6, k_inlet_sleeve = 152.3, sigma_inlet_sleeve = 3.9816E7, rho_inlet_sleeve = 2905.8) (degC), Point: 229Temperature (Cp_Al = 829.2, k_Al = 173.9, sigma_Al = 4.0928E7, rho_Al = 2437.5, Cp_inlet = 927.6, k_inlet = 158.1, sigma_inlet = 4.133E7, rho_inlet = 2642.4, Cp_outlet = 888.1, k_outlet = 150.1, sigma_outlet = 3.9291E7, rho_outlet = 2576.1, Cp_outlet_sleeve = 968.1, k_outlet_sleeve = 167.4, sigma_outlet_sleeve = 3.6535E7, rho_outlet_sleeve = 2782.4, Cp_inlet_sleeve = 948.6, k_inlet_sleeve = 152.3, sigma_inlet_sleeve = 3.9816E7, rho_inlet_sleeve = 2905.8) (degC), Point: 232Temperature (Cp_Al = 829.2, k_Al = 173.9, sigma_Al = 4.0928E7, rho_Al = 2437.5, Cp_inlet = 927.6, k_inlet = 158.1, sigma_inlet = 4.133E7, rho_inlet = 2642.4, Cp_outlet = 888.1, k_outlet = 150.1, sigma_outlet = 3.9291E7, rho_outlet = 2576.1, Cp_outlet_sleeve = 968.1, k_outlet_sleeve = 167.4, sigma_outlet_sleeve = 3.6535E7, rho_outlet_sleeve = 2782.4, Cp_inlet_sleeve = 948.6, k_inlet_sleeve = 152.3, sigma_inlet_sleeve = 3.9816E7, rho_inlet_sleeve = 2905.8) (degC), Point: 239Temperature (Cp_Al = 829.2, k_Al = 173.9, sigma_Al = 4.0928E7, rho_Al = 2437.5, Cp_inlet = 927.6, k_inlet = 158.1, sigma_inlet = 4.133E7, rho_inlet = 2642.4, Cp_outlet = 888.1, k_outlet = 150.1, sigma_outlet = 3.9291E7, rho_outlet = 2576.1, Cp_outlet_sleeve = 968.1, k_outlet_sleeve = 167.4, sigma_outlet_sleeve = 3.6535E7, rho_outlet_sleeve = 2782.4, Cp_inlet_sleeve = 948.6, k_inlet_sleeve = 152.3, sigma_inlet_sleeve = 3.9816E7, rho_inlet_sleeve = 2905.8) (degC), Point: 252Temperature (Cp_Al = 829.2, k_Al = 173.9, sigma_Al = 4.0928E7, rho_Al = 2437.5, Cp_inlet = 927.6, k_inlet = 158.1, sigma_inlet = 4.133E7, rho_inlet = 2642.4, Cp_outlet = 888.1, k_outlet = 150.1, sigma_outlet = 3.9291E7, rho_outlet = 2576.1, Cp_outlet_sleeve = 968.1, k_outlet_sleeve = 167.4, sigma_outlet_sleeve = 3.6535E7, rho_outlet_sleeve = 2782.4, Cp_inlet_sleeve = 948.6, k_inlet_sleeve = 152.3, sigma_inlet_sleeve = 3.9816E7, rho_inlet_sleeve = 2905.8) (degC), Point: 261Temperature (Cp_Al = 829.2, k_Al = 173.9, sigma_Al = 4.0928E7, rho_Al = 2437.5, Cp_inlet = 927.6, k_inlet = 158.1, sigma_inlet = 4.133E7, rho_inlet = 2642.4, Cp_outlet = 888.1, k_outlet = 150.1, sigma_outlet = 3.9291E7, rho_outlet = 2576.1, Cp_outlet_sleeve = 968.1, k_outlet_sleeve = 167.4, sigma_outlet_sleeve = 3.6535E7, rho_outlet_sleeve = 2782.4, Cp_inlet_sleeve = 948.6, k_inlet_sleeve = 152.3, sigma_inlet_sleeve = 3.9816E7, rho_inlet_sleeve = 2905.8) (degC), Point: 270Temperature (Cp_Al = 829.2, k_Al = 173.9, sigma_Al = 4.0928E7, rho_Al = 2437.5, Cp_inlet = 927.6, k_inlet = 158.1, sigma_inlet = 4.133E7, rho_inlet = 2642.4, Cp_outlet = 888.1, k_outlet = 150.1, sigma_outlet = 3.9291E7, rho_outlet = 2576.1, Cp_outlet_sleeve = 968.1, k_outlet_sleeve = 167.4, sigma_outlet_sleeve = 3.6535E7, rho_outlet_sleeve = 2782.4, Cp_inlet_sleeve = 948.6, k_inlet_sleeve = 152.3, sigma_inlet_sleeve = 3.9816E7, rho_inlet_sleeve = 2905.8) (degC), Point: 273Temperature (Cp_Al = 829.2, k_Al = 173.9, sigma_Al = 4.0928E7, rho_Al = 2437.5, Cp_inlet = 927.6, k_inlet = 158.1, sigma_inlet = 4.133E7, rho_inlet = 2642.4, Cp_outlet = 888.1, k_outlet = 150.1, sigma_outlet = 3.9291E7, rho_outlet = 2576.1, Cp_outlet_sleeve = 968.1, k_outlet_sleeve = 167.4, sigma_outlet_sleeve = 3.6535E7, rho_outlet_sleeve = 2782.4, Cp_inlet_sleeve = 948.6, k_inlet_sleeve = 152.3, sigma_inlet_sleeve = 3.9816E7, rho_inlet_sleeve = 2905.8) (degC), Point: 275
0                        21.518842931106747       21.010082280733684       21.130942704784957       21.00830783879121        21.01198984087108        21.10705507478633        21.007968992565793       21.022230412291776       21.00125695568829        21.024274790555808       21.001130132234437       21.00060725669823        21.009470786226814       21.000100545160876       21.00662531098675        21.01696905407266        21.000049245894786       21.011478497876453       21.000705535640066       21.000287197553007       21.001762659408826       21.000144947748424       21.000214440781576       21.007974434684          21.117450783451545       21.011516139309492       21.474432658390583       21.008191191657033       21.14371842981302        21.012795581125715       21.57734898230234
3                        284.65694790718544       251.22838920996344       261.91785835580015       257.7208596115946        243.68921758491786       254.95785231776415       252.80682448391758       242.39823514994373       237.96176270429282       247.64908483815032       249.22324238528904       241.09370090154414       238.86788284018394       227.29611597154326       231.8252670063057        219.0341542671336        214.5640827179438        224.3561438369211        226.158740046196         219.96267965511328       218.7328603477274        211.34376928599067       214.09878040500183       254.8389261866747        257.43755116979287       245.32183163035256       279.161623971779         259.6048006070945        264.0523125307708        250.82230021151918       289.02832579940923
6                        404.3382423339467        369.45509789426785       383.490567354512         379.9073715623391        364.4245441845603        380.15754288166943       378.89422728325974       364.94211438954085       358.5515806097486        372.75191397915273       375.21860121392274       367.07690793727863       363.96320749083395       347.87606348490533       354.34997630686235       337.6342589373693        331.64468922881304       344.9487804728693        347.39699203175326       341.0301768489593        339.2117251390039        328.47935948136717       332.6996004497928        380.73838557175475       382.42768540243947       365.75502109487013       401.56389553819076       379.5858540418907        383.4060825920583        366.6154675728998        406.3748430040423
9                        476.21875806211074       440.44073266742487       457.000180254538         454.091674703266         434.35582953754556       453.2534231859604        452.8358037446461        435.9434242139382        428.39809121559404       445.7953743860345        449.11077173088347       440.96621695203373       437.00554351427445       417.7199827203219        425.3393618650456        408.696762323856         401.77285867109174       417.7128057072864        420.86079926227785       414.6325378792267        412.14654165690195       398.8741337378859        403.99878618484047       454.5866722553351        455.41020077644464       435.51307384151517       472.48393378398976       452.4418050335445        455.56832165345554       436.09929621555693       476.81813282324697
12                       524.8561831879596        488.48135096225894       506.9213707772036        504.58809336874424       480.5904442821321        501.6993616057929        501.94528010669853       482.8571469723124        474.5824883039072        494.2119272053146        498.1927057564495        490.04587531013874       485.42003396895745       463.8995321208338        472.2413729807149        456.86906080739357       449.32288846027575       467.2179225776159        470.95951611263445       464.81131451562214       461.74632598984806       446.5667802716206        452.29669655753355       503.6454699542054        503.7895981783023        481.64154045997964       519.3456634001263        502.2089723689405        504.73739195110625       483.26905927928067       524.6288655945215
15                       561.9074064969111        525.0996644090178        544.9931436807683        543.1338402354664        515.4279156962058        538.1520011814644        538.9093846076094        518.1652433937182        509.38669686044886       530.6456556878834        535.1391852680215        526.9934044196654        521.85468722084          498.70234196324407       507.54294233160897       493.63281032860175       485.6364788129757        505.036968310794         509.26631398214056       503.1899043204693        499.64259617429434       482.98023560737363       489.1504900173941        540.5805692471406        540.2009787825469        516.4104370783199        554.620729952852         540.3401684111742        542.3718550766033        519.3558622067178        561.1805519651504
18                       591.8504811701201        554.7153916930271        575.7668605492397        574.303299962745         543.37414344595          567.3154052020674        568.4745927938803        546.451286257355         537.3108013891314        559.7969525045112        564.6931775199043        556.5498203558535        551.0081101749946        526.626605809108         535.8251979222363        523.3930433703125        515.0574230224829        535.6533210524448        540.2890881675221        534.283148293547         530.3299918645649        512.4811122997847        518.9849581027563        570.1298779424419        569.3388919299266        544.3120840434411        582.8855464379089        571.2817490553795        572.8963702353278        548.6468082638476        590.8224065522312
21                       617.4132415972094        580.0195953465384        602.0233955960217        600.8961824552816        567.1316804791998        592.0271158908886        593.5115508453364        570.4662702413572        561.0533937028085        584.500868577942         589.7229602552094        581.5825790899978        575.7146354099692        550.3701373152736        559.8379666500737        548.836080712449         540.2334144516093        561.8093888308499        566.7899799262426        560.8514457843814        556.5516830554993        537.7246015590991        544.4920648467952        595.1588040548581        594.0348846884715        568.0402878808825        606.8867036762267        597.7551327500387        599.014219618934         573.7512463342482        616.2030644673049
24                       640.248754882969         602.6429563320734        625.4504753169292        624.6131907922274        588.3355412894606        614.009267501761         615.7652050730652        591.8749103523786        582.2468803683953        606.4779149426503        611.971944503909         603.8346859660919        597.6944257510738        571.5649450401128        581.2453103556302        571.5901500088819        562.7690987979659        585.169995381792         590.4473721645962        584.5711681586438        579.9718828009394        560.3185132899932        567.3021433473651        617.4090407495994        616.0072955179292        589.2244157509954        628.2861308790435        621.4135051190001        622.3658371679618        596.2493965923155        638.9268818149098
27                       661.2918168933351        623.5076537542944        647.0038840339606        646.4183573846246        607.9165271787502        634.2443874161405        636.2322907349128        611.6248923113958        601.820443921723         626.7096232271693        632.4359294454428        624.3017296791035        617.9288289341289        591.1399825155312        600.994534364239         592.5756072565762        583.5714721977789        606.6777170443739        612.2124819376982        606.3925695163616        601.5329063643657        581.1714862306773        588.3366480032357        637.8753806195385        636.2363515889921        608.7917802788564        648.0298096538838        643.1938062359852        643.8798191955707        617.0337878441362        659.9001946752321
