% Model:              brazing.mph
% Version:            COMSOL 5.3.0.223
% Date:               Oct 23 2018, 13:32
% Table:              Table 3 - 
% Time (s)               Temperature (Cp_Al = 936.2, k_Al = 141.74, sigma_Al = 3.9527E7, rho_Al = 2461.8, Cp_inlet = 881.4, k_inlet = 157.1, sigma_inlet = 4.0386E7, rho_inlet = 2697, Cp_outlet = 834, k_outlet = 158.3, sigma_outlet = 3.8718E7, rho_outlet = 2740.6, Cp_outlet_sleeve = 895.9, k_outlet_sleeve = 146.2, sigma_outlet_sleeve = 3.9867E7, rho_outlet_sleeve = 2962.7, Cp_inlet_sleeve = 989.5, k_inlet_sleeve = 148.27, sigma_inlet_sleeve = 3.5871E7, rho_inlet_sleeve = 2913.4) (degC), Point: 55Temperature (Cp_Al = 936.2, k_Al = 141.74, sigma_Al = 3.9527E7, rho_Al = 2461.8, Cp_inlet = 881.4, k_inlet = 157.1, sigma_inlet = 4.0386E7, rho_inlet = 2697, Cp_outlet = 834, k_outlet = 158.3, sigma_outlet = 3.8718E7, rho_outlet = 2740.6, Cp_outlet_sleeve = 895.9, k_outlet_sleeve = 146.2, sigma_outlet_sleeve = 3.9867E7, rho_outlet_sleeve = 2962.7, Cp_inlet_sleeve = 989.5, k_inlet_sleeve = 148.27, sigma_inlet_sleeve = 3.5871E7, rho_inlet_sleeve = 2913.4) (degC), Point: 56Temperature (Cp_Al = 936.2, k_Al = 141.74, sigma_Al = 3.9527E7, rho_Al = 2461.8, Cp_inlet = 881.4, k_inlet = 157.1, sigma_inlet = 4.0386E7, rho_inlet = 2697, Cp_outlet = 834, k_outlet = 158.3, sigma_outlet = 3.8718E7, rho_outlet = 2740.6, Cp_outlet_sleeve = 895.9, k_outlet_sleeve = 146.2, sigma_outlet_sleeve = 3.9867E7, rho_outlet_sleeve = 2962.7, Cp_inlet_sleeve = 989.5, k_inlet_sleeve = 148.27, sigma_inlet_sleeve = 3.5871E7, rho_inlet_sleeve = 2913.4) (degC), Point: 60Temperature (Cp_Al = 936.2, k_Al = 141.74, sigma_Al = 3.9527E7, rho_Al = 2461.8, Cp_inlet = 881.4, k_inlet = 157.1, sigma_inlet = 4.0386E7, rho_inlet = 2697, Cp_outlet = 834, k_outlet = 158.3, sigma_outlet = 3.8718E7, rho_outlet = 2740.6, Cp_outlet_sleeve = 895.9, k_outlet_sleeve = 146.2, sigma_outlet_sleeve = 3.9867E7, rho_outlet_sleeve = 2962.7, Cp_inlet_sleeve = 989.5, k_inlet_sleeve = 148.27, sigma_inlet_sleeve = 3.5871E7, rho_inlet_sleeve = 2913.4) (degC), Point: 69Temperature (Cp_Al = 936.2, k_Al = 141.74, sigma_Al = 3.9527E7, rho_Al = 2461.8, Cp_inlet = 881.4, k_inlet = 157.1, sigma_inlet = 4.0386E7, rho_inlet = 2697, Cp_outlet = 834, k_outlet = 158.3, sigma_outlet = 3.8718E7, rho_outlet = 2740.6, Cp_outlet_sleeve = 895.9, k_outlet_sleeve = 146.2, sigma_outlet_sleeve = 3.9867E7, rho_outlet_sleeve = 2962.7, Cp_inlet_sleeve = 989.5, k_inlet_sleeve = 148.27, sigma_inlet_sleeve = 3.5871E7, rho_inlet_sleeve = 2913.4) (degC), Point: 90Temperature (Cp_Al = 936.2, k_Al = 141.74, sigma_Al = 3.9527E7, rho_Al = 2461.8, Cp_inlet = 881.4, k_inlet = 157.1, sigma_inlet = 4.0386E7, rho_inlet = 2697, Cp_outlet = 834, k_outlet = 158.3, sigma_outlet = 3.8718E7, rho_outlet = 2740.6, Cp_outlet_sleeve = 895.9, k_outlet_sleeve = 146.2, sigma_outlet_sleeve = 3.9867E7, rho_outlet_sleeve = 2962.7, Cp_inlet_sleeve = 989.5, k_inlet_sleeve = 148.27, sigma_inlet_sleeve = 3.5871E7, rho_inlet_sleeve = 2913.4) (degC), Point: 98Temperature (Cp_Al = 936.2, k_Al = 141.74, sigma_Al = 3.9527E7, rho_Al = 2461.8, Cp_inlet = 881.4, k_inlet = 157.1, sigma_inlet = 4.0386E7, rho_inlet = 2697, Cp_outlet = 834, k_outlet = 158.3, sigma_outlet = 3.8718E7, rho_outlet = 2740.6, Cp_outlet_sleeve = 895.9, k_outlet_sleeve = 146.2, sigma_outlet_sleeve = 3.9867E7, rho_outlet_sleeve = 2962.7, Cp_inlet_sleeve = 989.5, k_inlet_sleeve = 148.27, sigma_inlet_sleeve = 3.5871E7, rho_inlet_sleeve = 2913.4) (degC), Point: 102Temperature (Cp_Al = 936.2, k_Al = 141.74, sigma_Al = 3.9527E7, rho_Al = 2461.8, Cp_inlet = 881.4, k_inlet = 157.1, sigma_inlet = 4.0386E7, rho_inlet = 2697, Cp_outlet = 834, k_outlet = 158.3, sigma_outlet = 3.8718E7, rho_outlet = 2740.6, Cp_outlet_sleeve = 895.9, k_outlet_sleeve = 146.2, sigma_outlet_sleeve = 3.9867E7, rho_outlet_sleeve = 2962.7, Cp_inlet_sleeve = 989.5, k_inlet_sleeve = 148.27, sigma_inlet_sleeve = 3.5871E7, rho_inlet_sleeve = 2913.4) (degC), Point: 127Temperature (Cp_Al = 936.2, k_Al = 141.74, sigma_Al = 3.9527E7, rho_Al = 2461.8, Cp_inlet = 881.4, k_inlet = 157.1, sigma_inlet = 4.0386E7, rho_inlet = 2697, Cp_outlet = 834, k_outlet = 158.3, sigma_outlet = 3.8718E7, rho_outlet = 2740.6, Cp_outlet_sleeve = 895.9, k_outlet_sleeve = 146.2, sigma_outlet_sleeve = 3.9867E7, rho_outlet_sleeve = 2962.7, Cp_inlet_sleeve = 989.5, k_inlet_sleeve = 148.27, sigma_inlet_sleeve = 3.5871E7, rho_inlet_sleeve = 2913.4) (degC), Point: 128Temperature (Cp_Al = 936.2, k_Al = 141.74, sigma_Al = 3.9527E7, rho_Al = 2461.8, Cp_inlet = 881.4, k_inlet = 157.1, sigma_inlet = 4.0386E7, rho_inlet = 2697, Cp_outlet = 834, k_outlet = 158.3, sigma_outlet = 3.8718E7, rho_outlet = 2740.6, Cp_outlet_sleeve = 895.9, k_outlet_sleeve = 146.2, sigma_outlet_sleeve = 3.9867E7, rho_outlet_sleeve = 2962.7, Cp_inlet_sleeve = 989.5, k_inlet_sleeve = 148.27, sigma_inlet_sleeve = 3.5871E7, rho_inlet_sleeve = 2913.4) (degC), Point: 134Temperature (Cp_Al = 936.2, k_Al = 141.74, sigma_Al = 3.9527E7, rho_Al = 2461.8, Cp_inlet = 881.4, k_inlet = 157.1, sigma_inlet = 4.0386E7, rho_inlet = 2697, Cp_outlet = 834, k_outlet = 158.3, sigma_outlet = 3.8718E7, rho_outlet = 2740.6, Cp_outlet_sleeve = 895.9, k_outlet_sleeve = 146.2, sigma_outlet_sleeve = 3.9867E7, rho_outlet_sleeve = 2962.7, Cp_inlet_sleeve = 989.5, k_inlet_sleeve = 148.27, sigma_inlet_sleeve = 3.5871E7, rho_inlet_sleeve = 2913.4) (degC), Point: 138Temperature (Cp_Al = 936.2, k_Al = 141.74, sigma_Al = 3.9527E7, rho_Al = 2461.8, Cp_inlet = 881.4, k_inlet = 157.1, sigma_inlet = 4.0386E7, rho_inlet = 2697, Cp_outlet = 834, k_outlet = 158.3, sigma_outlet = 3.8718E7, rho_outlet = 2740.6, Cp_outlet_sleeve = 895.9, k_outlet_sleeve = 146.2, sigma_outlet_sleeve = 3.9867E7, rho_outlet_sleeve = 2962.7, Cp_inlet_sleeve = 989.5, k_inlet_sleeve = 148.27, sigma_inlet_sleeve = 3.5871E7, rho_inlet_sleeve = 2913.4) (degC), Point: 151Temperature (Cp_Al = 936.2, k_Al = 141.74, sigma_Al = 3.9527E7, rho_Al = 2461.8, Cp_inlet = 881.4, k_inlet = 157.1, sigma_inlet = 4.0386E7, rho_inlet = 2697, Cp_outlet = 834, k_outlet = 158.3, sigma_outlet = 3.8718E7, rho_outlet = 2740.6, Cp_outlet_sleeve = 895.9, k_outlet_sleeve = 146.2, sigma_outlet_sleeve = 3.9867E7, rho_outlet_sleeve = 2962.7, Cp_inlet_sleeve = 989.5, k_inlet_sleeve = 148.27, sigma_inlet_sleeve = 3.5871E7, rho_inlet_sleeve = 2913.4) (degC), Point: 154Temperature (Cp_Al = 936.2, k_Al = 141.74, sigma_Al = 3.9527E7, rho_Al = 2461.8, Cp_inlet = 881.4, k_inlet = 157.1, sigma_inlet = 4.0386E7, rho_inlet = 2697, Cp_outlet = 834, k_outlet = 158.3, sigma_outlet = 3.8718E7, rho_outlet = 2740.6, Cp_outlet_sleeve = 895.9, k_outlet_sleeve = 146.2, sigma_outlet_sleeve = 3.9867E7, rho_outlet_sleeve = 2962.7, Cp_inlet_sleeve = 989.5, k_inlet_sleeve = 148.27, sigma_inlet_sleeve = 3.5871E7, rho_inlet_sleeve = 2913.4) (degC), Point: 159Temperature (Cp_Al = 936.2, k_Al = 141.74, sigma_Al = 3.9527E7, rho_Al = 2461.8, Cp_inlet = 881.4, k_inlet = 157.1, sigma_inlet = 4.0386E7, rho_inlet = 2697, Cp_outlet = 834, k_outlet = 158.3, sigma_outlet = 3.8718E7, rho_outlet = 2740.6, Cp_outlet_sleeve = 895.9, k_outlet_sleeve = 146.2, sigma_outlet_sleeve = 3.9867E7, rho_outlet_sleeve = 2962.7, Cp_inlet_sleeve = 989.5, k_inlet_sleeve = 148.27, sigma_inlet_sleeve = 3.5871E7, rho_inlet_sleeve = 2913.4) (degC), Point: 163Temperature (Cp_Al = 936.2, k_Al = 141.74, sigma_Al = 3.9527E7, rho_Al = 2461.8, Cp_inlet = 881.4, k_inlet = 157.1, sigma_inlet = 4.0386E7, rho_inlet = 2697, Cp_outlet = 834, k_outlet = 158.3, sigma_outlet = 3.8718E7, rho_outlet = 2740.6, Cp_outlet_sleeve = 895.9, k_outlet_sleeve = 146.2, sigma_outlet_sleeve = 3.9867E7, rho_outlet_sleeve = 2962.7, Cp_inlet_sleeve = 989.5, k_inlet_sleeve = 148.27, sigma_inlet_sleeve = 3.5871E7, rho_inlet_sleeve = 2913.4) (degC), Point: 167Temperature (Cp_Al = 936.2, k_Al = 141.74, sigma_Al = 3.9527E7, rho_Al = 2461.8, Cp_inlet = 881.4, k_inlet = 157.1, sigma_inlet = 4.0386E7, rho_inlet = 2697, Cp_outlet = 834, k_outlet = 158.3, sigma_outlet = 3.8718E7, rho_outlet = 2740.6, Cp_outlet_sleeve = 895.9, k_outlet_sleeve = 146.2, sigma_outlet_sleeve = 3.9867E7, rho_outlet_sleeve = 2962.7, Cp_inlet_sleeve = 989.5, k_inlet_sleeve = 148.27, sigma_inlet_sleeve = 3.5871E7, rho_inlet_sleeve = 2913.4) (degC), Point: 168Temperature (Cp_Al = 936.2, k_Al = 141.74, sigma_Al = 3.9527E7, rho_Al = 2461.8, Cp_inlet = 881.4, k_inlet = 157.1, sigma_inlet = 4.0386E7, rho_inlet = 2697, Cp_outlet = 834, k_outlet = 158.3, sigma_outlet = 3.8718E7, rho_outlet = 2740.6, Cp_outlet_sleeve = 895.9, k_outlet_sleeve = 146.2, sigma_outlet_sleeve = 3.9867E7, rho_outlet_sleeve = 2962.7, Cp_inlet_sleeve = 989.5, k_inlet_sleeve = 148.27, sigma_inlet_sleeve = 3.5871E7, rho_inlet_sleeve = 2913.4) (degC), Point: 172Temperature (Cp_Al = 936.2, k_Al = 141.74, sigma_Al = 3.9527E7, rho_Al = 2461.8, Cp_inlet = 881.4, k_inlet = 157.1, sigma_inlet = 4.0386E7, rho_inlet = 2697, Cp_outlet = 834, k_outlet = 158.3, sigma_outlet = 3.8718E7, rho_outlet = 2740.6, Cp_outlet_sleeve = 895.9, k_outlet_sleeve = 146.2, sigma_outlet_sleeve = 3.9867E7, rho_outlet_sleeve = 2962.7, Cp_inlet_sleeve = 989.5, k_inlet_sleeve = 148.27, sigma_inlet_sleeve = 3.5871E7, rho_inlet_sleeve = 2913.4) (degC), Point: 181Temperature (Cp_Al = 936.2, k_Al = 141.74, sigma_Al = 3.9527E7, rho_Al = 2461.8, Cp_inlet = 881.4, k_inlet = 157.1, sigma_inlet = 4.0386E7, rho_inlet = 2697, Cp_outlet = 834, k_outlet = 158.3, sigma_outlet = 3.8718E7, rho_outlet = 2740.6, Cp_outlet_sleeve = 895.9, k_outlet_sleeve = 146.2, sigma_outlet_sleeve = 3.9867E7, rho_outlet_sleeve = 2962.7, Cp_inlet_sleeve = 989.5, k_inlet_sleeve = 148.27, sigma_inlet_sleeve = 3.5871E7, rho_inlet_sleeve = 2913.4) (degC), Point: 201Temperature (Cp_Al = 936.2, k_Al = 141.74, sigma_Al = 3.9527E7, rho_Al = 2461.8, Cp_inlet = 881.4, k_inlet = 157.1, sigma_inlet = 4.0386E7, rho_inlet = 2697, Cp_outlet = 834, k_outlet = 158.3, sigma_outlet = 3.8718E7, rho_outlet = 2740.6, Cp_outlet_sleeve = 895.9, k_outlet_sleeve = 146.2, sigma_outlet_sleeve = 3.9867E7, rho_outlet_sleeve = 2962.7, Cp_inlet_sleeve = 989.5, k_inlet_sleeve = 148.27, sigma_inlet_sleeve = 3.5871E7, rho_inlet_sleeve = 2913.4) (degC), Point: 210Temperature (Cp_Al = 936.2, k_Al = 141.74, sigma_Al = 3.9527E7, rho_Al = 2461.8, Cp_inlet = 881.4, k_inlet = 157.1, sigma_inlet = 4.0386E7, rho_inlet = 2697, Cp_outlet = 834, k_outlet = 158.3, sigma_outlet = 3.8718E7, rho_outlet = 2740.6, Cp_outlet_sleeve = 895.9, k_outlet_sleeve = 146.2, sigma_outlet_sleeve = 3.9867E7, rho_outlet_sleeve = 2962.7, Cp_inlet_sleeve = 989.5, k_inlet_sleeve = 148.27, sigma_inlet_sleeve = 3.5871E7, rho_inlet_sleeve = 2913.4) (degC), Point: 213Temperature (Cp_Al = 936.2, k_Al = 141.74, sigma_Al = 3.9527E7, rho_Al = 2461.8, Cp_inlet = 881.4, k_inlet = 157.1, sigma_inlet = 4.0386E7, rho_inlet = 2697, Cp_outlet = 834, k_outlet = 158.3, sigma_outlet = 3.8718E7, rho_outlet = 2740.6, Cp_outlet_sleeve = 895.9, k_outlet_sleeve = 146.2, sigma_outlet_sleeve = 3.9867E7, rho_outlet_sleeve = 2962.7, Cp_inlet_sleeve = 989.5, k_inlet_sleeve = 148.27, sigma_inlet_sleeve = 3.5871E7, rho_inlet_sleeve = 2913.4) (degC), Point: 215Temperature (Cp_Al = 936.2, k_Al = 141.74, sigma_Al = 3.9527E7, rho_Al = 2461.8, Cp_inlet = 881.4, k_inlet = 157.1, sigma_inlet = 4.0386E7, rho_inlet = 2697, Cp_outlet = 834, k_outlet = 158.3, sigma_outlet = 3.8718E7, rho_outlet = 2740.6, Cp_outlet_sleeve = 895.9, k_outlet_sleeve = 146.2, sigma_outlet_sleeve = 3.9867E7, rho_outlet_sleeve = 2962.7, Cp_inlet_sleeve = 989.5, k_inlet_sleeve = 148.27, sigma_inlet_sleeve = 3.5871E7, rho_inlet_sleeve = 2913.4) (degC), Point: 229Temperature (Cp_Al = 936.2, k_Al = 141.74, sigma_Al = 3.9527E7, rho_Al = 2461.8, Cp_inlet = 881.4, k_inlet = 157.1, sigma_inlet = 4.0386E7, rho_inlet = 2697, Cp_outlet = 834, k_outlet = 158.3, sigma_outlet = 3.8718E7, rho_outlet = 2740.6, Cp_outlet_sleeve = 895.9, k_outlet_sleeve = 146.2, sigma_outlet_sleeve = 3.9867E7, rho_outlet_sleeve = 2962.7, Cp_inlet_sleeve = 989.5, k_inlet_sleeve = 148.27, sigma_inlet_sleeve = 3.5871E7, rho_inlet_sleeve = 2913.4) (degC), Point: 232Temperature (Cp_Al = 936.2, k_Al = 141.74, sigma_Al = 3.9527E7, rho_Al = 2461.8, Cp_inlet = 881.4, k_inlet = 157.1, sigma_inlet = 4.0386E7, rho_inlet = 2697, Cp_outlet = 834, k_outlet = 158.3, sigma_outlet = 3.8718E7, rho_outlet = 2740.6, Cp_outlet_sleeve = 895.9, k_outlet_sleeve = 146.2, sigma_outlet_sleeve = 3.9867E7, rho_outlet_sleeve = 2962.7, Cp_inlet_sleeve = 989.5, k_inlet_sleeve = 148.27, sigma_inlet_sleeve = 3.5871E7, rho_inlet_sleeve = 2913.4) (degC), Point: 239Temperature (Cp_Al = 936.2, k_Al = 141.74, sigma_Al = 3.9527E7, rho_Al = 2461.8, Cp_inlet = 881.4, k_inlet = 157.1, sigma_inlet = 4.0386E7, rho_inlet = 2697, Cp_outlet = 834, k_outlet = 158.3, sigma_outlet = 3.8718E7, rho_outlet = 2740.6, Cp_outlet_sleeve = 895.9, k_outlet_sleeve = 146.2, sigma_outlet_sleeve = 3.9867E7, rho_outlet_sleeve = 2962.7, Cp_inlet_sleeve = 989.5, k_inlet_sleeve = 148.27, sigma_inlet_sleeve = 3.5871E7, rho_inlet_sleeve = 2913.4) (degC), Point: 252Temperature (Cp_Al = 936.2, k_Al = 141.74, sigma_Al = 3.9527E7, rho_Al = 2461.8, Cp_inlet = 881.4, k_inlet = 157.1, sigma_inlet = 4.0386E7, rho_inlet = 2697, Cp_outlet = 834, k_outlet = 158.3, sigma_outlet = 3.8718E7, rho_outlet = 2740.6, Cp_outlet_sleeve = 895.9, k_outlet_sleeve = 146.2, sigma_outlet_sleeve = 3.9867E7, rho_outlet_sleeve = 2962.7, Cp_inlet_sleeve = 989.5, k_inlet_sleeve = 148.27, sigma_inlet_sleeve = 3.5871E7, rho_inlet_sleeve = 2913.4) (degC), Point: 261Temperature (Cp_Al = 936.2, k_Al = 141.74, sigma_Al = 3.9527E7, rho_Al = 2461.8, Cp_inlet = 881.4, k_inlet = 157.1, sigma_inlet = 4.0386E7, rho_inlet = 2697, Cp_outlet = 834, k_outlet = 158.3, sigma_outlet = 3.8718E7, rho_outlet = 2740.6, Cp_outlet_sleeve = 895.9, k_outlet_sleeve = 146.2, sigma_outlet_sleeve = 3.9867E7, rho_outlet_sleeve = 2962.7, Cp_inlet_sleeve = 989.5, k_inlet_sleeve = 148.27, sigma_inlet_sleeve = 3.5871E7, rho_inlet_sleeve = 2913.4) (degC), Point: 270Temperature (Cp_Al = 936.2, k_Al = 141.74, sigma_Al = 3.9527E7, rho_Al = 2461.8, Cp_inlet = 881.4, k_inlet = 157.1, sigma_inlet = 4.0386E7, rho_inlet = 2697, Cp_outlet = 834, k_outlet = 158.3, sigma_outlet = 3.8718E7, rho_outlet = 2740.6, Cp_outlet_sleeve = 895.9, k_outlet_sleeve = 146.2, sigma_outlet_sleeve = 3.9867E7, rho_outlet_sleeve = 2962.7, Cp_inlet_sleeve = 989.5, k_inlet_sleeve = 148.27, sigma_inlet_sleeve = 3.5871E7, rho_inlet_sleeve = 2913.4) (degC), Point: 273Temperature (Cp_Al = 936.2, k_Al = 141.74, sigma_Al = 3.9527E7, rho_Al = 2461.8, Cp_inlet = 881.4, k_inlet = 157.1, sigma_inlet = 4.0386E7, rho_inlet = 2697, Cp_outlet = 834, k_outlet = 158.3, sigma_outlet = 3.8718E7, rho_outlet = 2740.6, Cp_outlet_sleeve = 895.9, k_outlet_sleeve = 146.2, sigma_outlet_sleeve = 3.9867E7, rho_outlet_sleeve = 2962.7, Cp_inlet_sleeve = 989.5, k_inlet_sleeve = 148.27, sigma_inlet_sleeve = 3.5871E7, rho_inlet_sleeve = 2913.4) (degC), Point: 275
0                        21.550835915298478       21.009833839039402       21.130067854659387       21.00829732629819        21.01166396247072        21.108278750107672       21.008179883659864       21.020217349319637       21.001246761696564       21.024542692933096       21.001161858038643       21.000621236407596       21.009599669354884       21.000101231670953       21.006066428200484       21.0179176231743         21.000051534848637       21.011371892937802       21.000701039186595       21.000285466145215       21.00174456607118        21.00014740202988        21.000223028444395       21.008191931452586       21.118807317419225       21.01121663958577        21.43495150179399        21.008181360930678       21.142748060852853       21.012921431869074       21.613023515477437
3                        293.48256692013535       255.31502858081376       264.7065134071016        260.1911704374279        250.0805835080904        261.35057231256906       259.1601759332857        248.58067541071898       244.2560587672633        253.97918632306653       255.56806925925866       247.0943984327422        244.81969893329176       232.9993827158416        237.52495039356864       222.1630420059007        217.47976334020427       227.16304163803932       228.82332555671655       222.53085878976117       221.39105389052554       213.99673278955345       216.75697665231576       261.25512521344444       263.9038005030136        251.77379729520965       285.8958351234014        262.24392326923055       267.0422305702356        255.18273925993265       298.720185231758
6                        420.3667635853594        380.78516585730017       393.03863513475574       388.94129688819214       378.9424915169552        394.3791295303671        392.95636566832513       379.2363807415097        372.9738232284293        386.9120248083534        389.273511638473         380.7688025795428        377.72419840513226       361.6753628943575        368.1353907788107        348.0115723054837        341.8456087023508        354.55575989385454       356.6635455723849        350.10396177575535       348.56724957711094       338.29544664473303       342.48807046606703       394.8456228769512        396.7050237269442        380.30408777669436       416.384777881215         388.75987298409325       393.12284747657895       378.15977444758573       423.223370605603
9                        499.6788516477204        459.1812613558094        473.76758007172555       470.23594545086223       455.70695011059934       474.2234773735896        473.5901746272692        457.08851135764917       449.6416541956155        466.69645283979037       469.85121866991403       461.3394117590324        457.5028998316976        438.3330437037008        445.9698173905788        426.4534897717932        419.32263217411946       434.4987774556721        437.2011394425326        430.74750297359515       428.64828146679645       416.0083504676261        421.1342739596331        475.36783945225204       476.41673957650573       456.8638462239229        494.1397110551683        468.6158907396914        472.38583748503777       454.89106546303674       500.95411285048453
12                       554.6116906311659        513.4701826481823        529.9080259607982        526.9035533798432        506.9647197878717        527.7156665707955        527.732622753385         509.0564825285214        500.837531775941         520.1521038319086        523.959692268905         515.4426453492556        510.953320020163         489.5193093393798        497.92184386449117       480.840517844464         473.03125996860035       490.1550709581895        493.4072678858712        487.0339257060025        484.400479421413         469.86623631501254       475.65091553551315       529.4435821115583        529.8249229084034        507.98715491241546       546.0417029564603        524.4244426374458        527.6364416461463        508.13038780743625       554.8984357351649
15                       596.6255506449044        554.996400295959         572.9372834703238        570.3937291118095        545.3226932676608        567.7521196128736        568.2875802452562        547.9169234648223        539.1517671095359        560.1632766522403        564.4912854245761        555.9739425643692        550.9639899925904        527.8299378504163        536.773580430204         522.4935697544905        514.1719676045071        532.8689909393224        536.5996564134085        530.3066389329656        527.2012870506596        511.121713220404         517.4065325227224        569.9567421693332        569.8058154664926        546.2532145422769        584.8582079885849        567.3887932806981        570.1104470382877        548.9731565370039        596.2747368391153
18                       630.415919822389         588.403190032802         607.5934506454548        605.4534110285705        575.6791228505928        599.4068154230148        600.3618232772366        578.6436224918741        569.4769381559482        591.8003547402174        596.5493442624211        588.0339584608055        582.6026971609447        558.1543947705029        567.4954052890192        556.0379552523542        547.3146603677013        567.3137258007622        571.4618513923454        565.2506371101829        561.7294156200908        544.361233053917         551.0400227932688        602.0048382528489        601.4232946524847        576.5457582828928        615.555001514084         602.1285649957333        604.4196615234812        581.9288898536225        629.649189705413
21                       658.9059352007885        616.5804123743137        636.83281247813          635.0481756276826        601.0104209957079        625.7784968960143        627.0814674783242        604.2604388333682        594.7854666902232        618.1595562726466        623.2575900729297        614.7451798365594        608.9644954372003        583.4636688005671        593.1094924117468        584.3548220885436        575.3051142559195        596.4068828521412        600.9217138647707        594.7900121750124        590.9011163439326        572.4358279344857        579.4359158209329        628.7082200572139        627.7696386102868        601.8317380024116        641.1509884054921        631.5286701768907        633.4401711861618        609.8019872389873        657.8624375488338
24                       683.9377249964065        641.3492463546858        662.5203390245375        661.0500535231938        623.1709713315187        648.8028698112674        650.4019012715726        626.6516071341432        616.9290401190174        641.1748967204619        646.5698155509195        638.0607634959621        631.982808405468         605.6087003266056        615.4991447719515        609.2602806490205        599.9371129416339        621.98956134797          626.8280398527154        620.7707385179489        616.556075214485         597.1417502973346        604.4116669131197        652.0186365549981        650.7764023601819        623.9593634135206        663.5272601174041        657.4109313275271        658.9868546204439        634.3596710032627        682.7047057044019
27                       706.5950747371761        663.7812560814341        685.7545693300716        684.5625852108012        643.2449945577431        669.613552712102         671.4693986692046        646.918630508583         636.9901483375593        661.9789231211554        667.6312894577127        659.125646924381         652.7898738326347        625.6715769998151        635.7653436054067        631.8225628434842        622.2657838735645        645.1461418356598        650.2706467547638        644.2813408531874        639.7781202122172        619.5356367837534        627.0364086995855        673.0801420315985        671.5746381858703        644.0089676844719        683.7833788595211        680.8496104379367        682.1288244241443        656.6411437788902        705.2288357710647
