% Model:              brazing.mph
% Version:            COMSOL 5.3.0.223
% Date:               Oct 23 2018, 13:49
% Table:              Table 3 - 
% Time (s)               Temperature (Cp_Al = 975.9, k_Al = 163.3, sigma_Al = 3.8215E7, rho_Al = 2433.6, Cp_inlet = 863.4, k_inlet = 167.4, sigma_inlet = 3.9104E7, rho_inlet = 2608.1, Cp_outlet = 934.8, k_outlet = 153.1, sigma_outlet = 4.0167E7, rho_outlet = 2814.1, Cp_outlet_sleeve = 922.3, k_outlet_sleeve = 175.9, sigma_outlet_sleeve = 3.976E7, rho_outlet_sleeve = 2522.6, Cp_inlet_sleeve = 921.9, k_inlet_sleeve = 173.1, sigma_inlet_sleeve = 3.9252E7, rho_inlet_sleeve = 2776.3) (degC), Point: 55Temperature (Cp_Al = 975.9, k_Al = 163.3, sigma_Al = 3.8215E7, rho_Al = 2433.6, Cp_inlet = 863.4, k_inlet = 167.4, sigma_inlet = 3.9104E7, rho_inlet = 2608.1, Cp_outlet = 934.8, k_outlet = 153.1, sigma_outlet = 4.0167E7, rho_outlet = 2814.1, Cp_outlet_sleeve = 922.3, k_outlet_sleeve = 175.9, sigma_outlet_sleeve = 3.976E7, rho_outlet_sleeve = 2522.6, Cp_inlet_sleeve = 921.9, k_inlet_sleeve = 173.1, sigma_inlet_sleeve = 3.9252E7, rho_inlet_sleeve = 2776.3) (degC), Point: 56Temperature (Cp_Al = 975.9, k_Al = 163.3, sigma_Al = 3.8215E7, rho_Al = 2433.6, Cp_inlet = 863.4, k_inlet = 167.4, sigma_inlet = 3.9104E7, rho_inlet = 2608.1, Cp_outlet = 934.8, k_outlet = 153.1, sigma_outlet = 4.0167E7, rho_outlet = 2814.1, Cp_outlet_sleeve = 922.3, k_outlet_sleeve = 175.9, sigma_outlet_sleeve = 3.976E7, rho_outlet_sleeve = 2522.6, Cp_inlet_sleeve = 921.9, k_inlet_sleeve = 173.1, sigma_inlet_sleeve = 3.9252E7, rho_inlet_sleeve = 2776.3) (degC), Point: 60Temperature (Cp_Al = 975.9, k_Al = 163.3, sigma_Al = 3.8215E7, rho_Al = 2433.6, Cp_inlet = 863.4, k_inlet = 167.4, sigma_inlet = 3.9104E7, rho_inlet = 2608.1, Cp_outlet = 934.8, k_outlet = 153.1, sigma_outlet = 4.0167E7, rho_outlet = 2814.1, Cp_outlet_sleeve = 922.3, k_outlet_sleeve = 175.9, sigma_outlet_sleeve = 3.976E7, rho_outlet_sleeve = 2522.6, Cp_inlet_sleeve = 921.9, k_inlet_sleeve = 173.1, sigma_inlet_sleeve = 3.9252E7, rho_inlet_sleeve = 2776.3) (degC), Point: 69Temperature (Cp_Al = 975.9, k_Al = 163.3, sigma_Al = 3.8215E7, rho_Al = 2433.6, Cp_inlet = 863.4, k_inlet = 167.4, sigma_inlet = 3.9104E7, rho_inlet = 2608.1, Cp_outlet = 934.8, k_outlet = 153.1, sigma_outlet = 4.0167E7, rho_outlet = 2814.1, Cp_outlet_sleeve = 922.3, k_outlet_sleeve = 175.9, sigma_outlet_sleeve = 3.976E7, rho_outlet_sleeve = 2522.6, Cp_inlet_sleeve = 921.9, k_inlet_sleeve = 173.1, sigma_inlet_sleeve = 3.9252E7, rho_inlet_sleeve = 2776.3) (degC), Point: 90Temperature (Cp_Al = 975.9, k_Al = 163.3, sigma_Al = 3.8215E7, rho_Al = 2433.6, Cp_inlet = 863.4, k_inlet = 167.4, sigma_inlet = 3.9104E7, rho_inlet = 2608.1, Cp_outlet = 934.8, k_outlet = 153.1, sigma_outlet = 4.0167E7, rho_outlet = 2814.1, Cp_outlet_sleeve = 922.3, k_outlet_sleeve = 175.9, sigma_outlet_sleeve = 3.976E7, rho_outlet_sleeve = 2522.6, Cp_inlet_sleeve = 921.9, k_inlet_sleeve = 173.1, sigma_inlet_sleeve = 3.9252E7, rho_inlet_sleeve = 2776.3) (degC), Point: 98Temperature (Cp_Al = 975.9, k_Al = 163.3, sigma_Al = 3.8215E7, rho_Al = 2433.6, Cp_inlet = 863.4, k_inlet = 167.4, sigma_inlet = 3.9104E7, rho_inlet = 2608.1, Cp_outlet = 934.8, k_outlet = 153.1, sigma_outlet = 4.0167E7, rho_outlet = 2814.1, Cp_outlet_sleeve = 922.3, k_outlet_sleeve = 175.9, sigma_outlet_sleeve = 3.976E7, rho_outlet_sleeve = 2522.6, Cp_inlet_sleeve = 921.9, k_inlet_sleeve = 173.1, sigma_inlet_sleeve = 3.9252E7, rho_inlet_sleeve = 2776.3) (degC), Point: 102Temperature (Cp_Al = 975.9, k_Al = 163.3, sigma_Al = 3.8215E7, rho_Al = 2433.6, Cp_inlet = 863.4, k_inlet = 167.4, sigma_inlet = 3.9104E7, rho_inlet = 2608.1, Cp_outlet = 934.8, k_outlet = 153.1, sigma_outlet = 4.0167E7, rho_outlet = 2814.1, Cp_outlet_sleeve = 922.3, k_outlet_sleeve = 175.9, sigma_outlet_sleeve = 3.976E7, rho_outlet_sleeve = 2522.6, Cp_inlet_sleeve = 921.9, k_inlet_sleeve = 173.1, sigma_inlet_sleeve = 3.9252E7, rho_inlet_sleeve = 2776.3) (degC), Point: 127Temperature (Cp_Al = 975.9, k_Al = 163.3, sigma_Al = 3.8215E7, rho_Al = 2433.6, Cp_inlet = 863.4, k_inlet = 167.4, sigma_inlet = 3.9104E7, rho_inlet = 2608.1, Cp_outlet = 934.8, k_outlet = 153.1, sigma_outlet = 4.0167E7, rho_outlet = 2814.1, Cp_outlet_sleeve = 922.3, k_outlet_sleeve = 175.9, sigma_outlet_sleeve = 3.976E7, rho_outlet_sleeve = 2522.6, Cp_inlet_sleeve = 921.9, k_inlet_sleeve = 173.1, sigma_inlet_sleeve = 3.9252E7, rho_inlet_sleeve = 2776.3) (degC), Point: 128Temperature (Cp_Al = 975.9, k_Al = 163.3, sigma_Al = 3.8215E7, rho_Al = 2433.6, Cp_inlet = 863.4, k_inlet = 167.4, sigma_inlet = 3.9104E7, rho_inlet = 2608.1, Cp_outlet = 934.8, k_outlet = 153.1, sigma_outlet = 4.0167E7, rho_outlet = 2814.1, Cp_outlet_sleeve = 922.3, k_outlet_sleeve = 175.9, sigma_outlet_sleeve = 3.976E7, rho_outlet_sleeve = 2522.6, Cp_inlet_sleeve = 921.9, k_inlet_sleeve = 173.1, sigma_inlet_sleeve = 3.9252E7, rho_inlet_sleeve = 2776.3) (degC), Point: 134Temperature (Cp_Al = 975.9, k_Al = 163.3, sigma_Al = 3.8215E7, rho_Al = 2433.6, Cp_inlet = 863.4, k_inlet = 167.4, sigma_inlet = 3.9104E7, rho_inlet = 2608.1, Cp_outlet = 934.8, k_outlet = 153.1, sigma_outlet = 4.0167E7, rho_outlet = 2814.1, Cp_outlet_sleeve = 922.3, k_outlet_sleeve = 175.9, sigma_outlet_sleeve = 3.976E7, rho_outlet_sleeve = 2522.6, Cp_inlet_sleeve = 921.9, k_inlet_sleeve = 173.1, sigma_inlet_sleeve = 3.9252E7, rho_inlet_sleeve = 2776.3) (degC), Point: 138Temperature (Cp_Al = 975.9, k_Al = 163.3, sigma_Al = 3.8215E7, rho_Al = 2433.6, Cp_inlet = 863.4, k_inlet = 167.4, sigma_inlet = 3.9104E7, rho_inlet = 2608.1, Cp_outlet = 934.8, k_outlet = 153.1, sigma_outlet = 4.0167E7, rho_outlet = 2814.1, Cp_outlet_sleeve = 922.3, k_outlet_sleeve = 175.9, sigma_outlet_sleeve = 3.976E7, rho_outlet_sleeve = 2522.6, Cp_inlet_sleeve = 921.9, k_inlet_sleeve = 173.1, sigma_inlet_sleeve = 3.9252E7, rho_inlet_sleeve = 2776.3) (degC), Point: 151Temperature (Cp_Al = 975.9, k_Al = 163.3, sigma_Al = 3.8215E7, rho_Al = 2433.6, Cp_inlet = 863.4, k_inlet = 167.4, sigma_inlet = 3.9104E7, rho_inlet = 2608.1, Cp_outlet = 934.8, k_outlet = 153.1, sigma_outlet = 4.0167E7, rho_outlet = 2814.1, Cp_outlet_sleeve = 922.3, k_outlet_sleeve = 175.9, sigma_outlet_sleeve = 3.976E7, rho_outlet_sleeve = 2522.6, Cp_inlet_sleeve = 921.9, k_inlet_sleeve = 173.1, sigma_inlet_sleeve = 3.9252E7, rho_inlet_sleeve = 2776.3) (degC), Point: 154Temperature (Cp_Al = 975.9, k_Al = 163.3, sigma_Al = 3.8215E7, rho_Al = 2433.6, Cp_inlet = 863.4, k_inlet = 167.4, sigma_inlet = 3.9104E7, rho_inlet = 2608.1, Cp_outlet = 934.8, k_outlet = 153.1, sigma_outlet = 4.0167E7, rho_outlet = 2814.1, Cp_outlet_sleeve = 922.3, k_outlet_sleeve = 175.9, sigma_outlet_sleeve = 3.976E7, rho_outlet_sleeve = 2522.6, Cp_inlet_sleeve = 921.9, k_inlet_sleeve = 173.1, sigma_inlet_sleeve = 3.9252E7, rho_inlet_sleeve = 2776.3) (degC), Point: 159Temperature (Cp_Al = 975.9, k_Al = 163.3, sigma_Al = 3.8215E7, rho_Al = 2433.6, Cp_inlet = 863.4, k_inlet = 167.4, sigma_inlet = 3.9104E7, rho_inlet = 2608.1, Cp_outlet = 934.8, k_outlet = 153.1, sigma_outlet = 4.0167E7, rho_outlet = 2814.1, Cp_outlet_sleeve = 922.3, k_outlet_sleeve = 175.9, sigma_outlet_sleeve = 3.976E7, rho_outlet_sleeve = 2522.6, Cp_inlet_sleeve = 921.9, k_inlet_sleeve = 173.1, sigma_inlet_sleeve = 3.9252E7, rho_inlet_sleeve = 2776.3) (degC), Point: 163Temperature (Cp_Al = 975.9, k_Al = 163.3, sigma_Al = 3.8215E7, rho_Al = 2433.6, Cp_inlet = 863.4, k_inlet = 167.4, sigma_inlet = 3.9104E7, rho_inlet = 2608.1, Cp_outlet = 934.8, k_outlet = 153.1, sigma_outlet = 4.0167E7, rho_outlet = 2814.1, Cp_outlet_sleeve = 922.3, k_outlet_sleeve = 175.9, sigma_outlet_sleeve = 3.976E7, rho_outlet_sleeve = 2522.6, Cp_inlet_sleeve = 921.9, k_inlet_sleeve = 173.1, sigma_inlet_sleeve = 3.9252E7, rho_inlet_sleeve = 2776.3) (degC), Point: 167Temperature (Cp_Al = 975.9, k_Al = 163.3, sigma_Al = 3.8215E7, rho_Al = 2433.6, Cp_inlet = 863.4, k_inlet = 167.4, sigma_inlet = 3.9104E7, rho_inlet = 2608.1, Cp_outlet = 934.8, k_outlet = 153.1, sigma_outlet = 4.0167E7, rho_outlet = 2814.1, Cp_outlet_sleeve = 922.3, k_outlet_sleeve = 175.9, sigma_outlet_sleeve = 3.976E7, rho_outlet_sleeve = 2522.6, Cp_inlet_sleeve = 921.9, k_inlet_sleeve = 173.1, sigma_inlet_sleeve = 3.9252E7, rho_inlet_sleeve = 2776.3) (degC), Point: 168Temperature (Cp_Al = 975.9, k_Al = 163.3, sigma_Al = 3.8215E7, rho_Al = 2433.6, Cp_inlet = 863.4, k_inlet = 167.4, sigma_inlet = 3.9104E7, rho_inlet = 2608.1, Cp_outlet = 934.8, k_outlet = 153.1, sigma_outlet = 4.0167E7, rho_outlet = 2814.1, Cp_outlet_sleeve = 922.3, k_outlet_sleeve = 175.9, sigma_outlet_sleeve = 3.976E7, rho_outlet_sleeve = 2522.6, Cp_inlet_sleeve = 921.9, k_inlet_sleeve = 173.1, sigma_inlet_sleeve = 3.9252E7, rho_inlet_sleeve = 2776.3) (degC), Point: 172Temperature (Cp_Al = 975.9, k_Al = 163.3, sigma_Al = 3.8215E7, rho_Al = 2433.6, Cp_inlet = 863.4, k_inlet = 167.4, sigma_inlet = 3.9104E7, rho_inlet = 2608.1, Cp_outlet = 934.8, k_outlet = 153.1, sigma_outlet = 4.0167E7, rho_outlet = 2814.1, Cp_outlet_sleeve = 922.3, k_outlet_sleeve = 175.9, sigma_outlet_sleeve = 3.976E7, rho_outlet_sleeve = 2522.6, Cp_inlet_sleeve = 921.9, k_inlet_sleeve = 173.1, sigma_inlet_sleeve = 3.9252E7, rho_inlet_sleeve = 2776.3) (degC), Point: 181Temperature (Cp_Al = 975.9, k_Al = 163.3, sigma_Al = 3.8215E7, rho_Al = 2433.6, Cp_inlet = 863.4, k_inlet = 167.4, sigma_inlet = 3.9104E7, rho_inlet = 2608.1, Cp_outlet = 934.8, k_outlet = 153.1, sigma_outlet = 4.0167E7, rho_outlet = 2814.1, Cp_outlet_sleeve = 922.3, k_outlet_sleeve = 175.9, sigma_outlet_sleeve = 3.976E7, rho_outlet_sleeve = 2522.6, Cp_inlet_sleeve = 921.9, k_inlet_sleeve = 173.1, sigma_inlet_sleeve = 3.9252E7, rho_inlet_sleeve = 2776.3) (degC), Point: 201Temperature (Cp_Al = 975.9, k_Al = 163.3, sigma_Al = 3.8215E7, rho_Al = 2433.6, Cp_inlet = 863.4, k_inlet = 167.4, sigma_inlet = 3.9104E7, rho_inlet = 2608.1, Cp_outlet = 934.8, k_outlet = 153.1, sigma_outlet = 4.0167E7, rho_outlet = 2814.1, Cp_outlet_sleeve = 922.3, k_outlet_sleeve = 175.9, sigma_outlet_sleeve = 3.976E7, rho_outlet_sleeve = 2522.6, Cp_inlet_sleeve = 921.9, k_inlet_sleeve = 173.1, sigma_inlet_sleeve = 3.9252E7, rho_inlet_sleeve = 2776.3) (degC), Point: 210Temperature (Cp_Al = 975.9, k_Al = 163.3, sigma_Al = 3.8215E7, rho_Al = 2433.6, Cp_inlet = 863.4, k_inlet = 167.4, sigma_inlet = 3.9104E7, rho_inlet = 2608.1, Cp_outlet = 934.8, k_outlet = 153.1, sigma_outlet = 4.0167E7, rho_outlet = 2814.1, Cp_outlet_sleeve = 922.3, k_outlet_sleeve = 175.9, sigma_outlet_sleeve = 3.976E7, rho_outlet_sleeve = 2522.6, Cp_inlet_sleeve = 921.9, k_inlet_sleeve = 173.1, sigma_inlet_sleeve = 3.9252E7, rho_inlet_sleeve = 2776.3) (degC), Point: 213Temperature (Cp_Al = 975.9, k_Al = 163.3, sigma_Al = 3.8215E7, rho_Al = 2433.6, Cp_inlet = 863.4, k_inlet = 167.4, sigma_inlet = 3.9104E7, rho_inlet = 2608.1, Cp_outlet = 934.8, k_outlet = 153.1, sigma_outlet = 4.0167E7, rho_outlet = 2814.1, Cp_outlet_sleeve = 922.3, k_outlet_sleeve = 175.9, sigma_outlet_sleeve = 3.976E7, rho_outlet_sleeve = 2522.6, Cp_inlet_sleeve = 921.9, k_inlet_sleeve = 173.1, sigma_inlet_sleeve = 3.9252E7, rho_inlet_sleeve = 2776.3) (degC), Point: 215Temperature (Cp_Al = 975.9, k_Al = 163.3, sigma_Al = 3.8215E7, rho_Al = 2433.6, Cp_inlet = 863.4, k_inlet = 167.4, sigma_inlet = 3.9104E7, rho_inlet = 2608.1, Cp_outlet = 934.8, k_outlet = 153.1, sigma_outlet = 4.0167E7, rho_outlet = 2814.1, Cp_outlet_sleeve = 922.3, k_outlet_sleeve = 175.9, sigma_outlet_sleeve = 3.976E7, rho_outlet_sleeve = 2522.6, Cp_inlet_sleeve = 921.9, k_inlet_sleeve = 173.1, sigma_inlet_sleeve = 3.9252E7, rho_inlet_sleeve = 2776.3) (degC), Point: 229Temperature (Cp_Al = 975.9, k_Al = 163.3, sigma_Al = 3.8215E7, rho_Al = 2433.6, Cp_inlet = 863.4, k_inlet = 167.4, sigma_inlet = 3.9104E7, rho_inlet = 2608.1, Cp_outlet = 934.8, k_outlet = 153.1, sigma_outlet = 4.0167E7, rho_outlet = 2814.1, Cp_outlet_sleeve = 922.3, k_outlet_sleeve = 175.9, sigma_outlet_sleeve = 3.976E7, rho_outlet_sleeve = 2522.6, Cp_inlet_sleeve = 921.9, k_inlet_sleeve = 173.1, sigma_inlet_sleeve = 3.9252E7, rho_inlet_sleeve = 2776.3) (degC), Point: 232Temperature (Cp_Al = 975.9, k_Al = 163.3, sigma_Al = 3.8215E7, rho_Al = 2433.6, Cp_inlet = 863.4, k_inlet = 167.4, sigma_inlet = 3.9104E7, rho_inlet = 2608.1, Cp_outlet = 934.8, k_outlet = 153.1, sigma_outlet = 4.0167E7, rho_outlet = 2814.1, Cp_outlet_sleeve = 922.3, k_outlet_sleeve = 175.9, sigma_outlet_sleeve = 3.976E7, rho_outlet_sleeve = 2522.6, Cp_inlet_sleeve = 921.9, k_inlet_sleeve = 173.1, sigma_inlet_sleeve = 3.9252E7, rho_inlet_sleeve = 2776.3) (degC), Point: 239Temperature (Cp_Al = 975.9, k_Al = 163.3, sigma_Al = 3.8215E7, rho_Al = 2433.6, Cp_inlet = 863.4, k_inlet = 167.4, sigma_inlet = 3.9104E7, rho_inlet = 2608.1, Cp_outlet = 934.8, k_outlet = 153.1, sigma_outlet = 4.0167E7, rho_outlet = 2814.1, Cp_outlet_sleeve = 922.3, k_outlet_sleeve = 175.9, sigma_outlet_sleeve = 3.976E7, rho_outlet_sleeve = 2522.6, Cp_inlet_sleeve = 921.9, k_inlet_sleeve = 173.1, sigma_inlet_sleeve = 3.9252E7, rho_inlet_sleeve = 2776.3) (degC), Point: 252Temperature (Cp_Al = 975.9, k_Al = 163.3, sigma_Al = 3.8215E7, rho_Al = 2433.6, Cp_inlet = 863.4, k_inlet = 167.4, sigma_inlet = 3.9104E7, rho_inlet = 2608.1, Cp_outlet = 934.8, k_outlet = 153.1, sigma_outlet = 4.0167E7, rho_outlet = 2814.1, Cp_outlet_sleeve = 922.3, k_outlet_sleeve = 175.9, sigma_outlet_sleeve = 3.976E7, rho_outlet_sleeve = 2522.6, Cp_inlet_sleeve = 921.9, k_inlet_sleeve = 173.1, sigma_inlet_sleeve = 3.9252E7, rho_inlet_sleeve = 2776.3) (degC), Point: 261Temperature (Cp_Al = 975.9, k_Al = 163.3, sigma_Al = 3.8215E7, rho_Al = 2433.6, Cp_inlet = 863.4, k_inlet = 167.4, sigma_inlet = 3.9104E7, rho_inlet = 2608.1, Cp_outlet = 934.8, k_outlet = 153.1, sigma_outlet = 4.0167E7, rho_outlet = 2814.1, Cp_outlet_sleeve = 922.3, k_outlet_sleeve = 175.9, sigma_outlet_sleeve = 3.976E7, rho_outlet_sleeve = 2522.6, Cp_inlet_sleeve = 921.9, k_inlet_sleeve = 173.1, sigma_inlet_sleeve = 3.9252E7, rho_inlet_sleeve = 2776.3) (degC), Point: 270Temperature (Cp_Al = 975.9, k_Al = 163.3, sigma_Al = 3.8215E7, rho_Al = 2433.6, Cp_inlet = 863.4, k_inlet = 167.4, sigma_inlet = 3.9104E7, rho_inlet = 2608.1, Cp_outlet = 934.8, k_outlet = 153.1, sigma_outlet = 4.0167E7, rho_outlet = 2814.1, Cp_outlet_sleeve = 922.3, k_outlet_sleeve = 175.9, sigma_outlet_sleeve = 3.976E7, rho_outlet_sleeve = 2522.6, Cp_inlet_sleeve = 921.9, k_inlet_sleeve = 173.1, sigma_inlet_sleeve = 3.9252E7, rho_inlet_sleeve = 2776.3) (degC), Point: 273Temperature (Cp_Al = 975.9, k_Al = 163.3, sigma_Al = 3.8215E7, rho_Al = 2433.6, Cp_inlet = 863.4, k_inlet = 167.4, sigma_inlet = 3.9104E7, rho_inlet = 2608.1, Cp_outlet = 934.8, k_outlet = 153.1, sigma_outlet = 4.0167E7, rho_outlet = 2814.1, Cp_outlet_sleeve = 922.3, k_outlet_sleeve = 175.9, sigma_outlet_sleeve = 3.976E7, rho_outlet_sleeve = 2522.6, Cp_inlet_sleeve = 921.9, k_inlet_sleeve = 173.1, sigma_inlet_sleeve = 3.9252E7, rho_inlet_sleeve = 2776.3) (degC), Point: 275
0                        21.615299824668796       21.011115632170686       21.129578770130593       21.007492278088876       21.012846874170236       21.10765807681139        21.008443724278038       21.02358153231853        21.001357811674723       21.024420809254593       21.00119640603691        21.000636562867953       21.00950952924984        21.000104837165054       21.0070627508984         21.020097039483062       21.00005209065887        21.01132225222375        21.000635337368806       21.000262596446362       21.00173800446106        21.00015596935725        21.00025378228463        21.008452085390616       21.118115220752884       21.01233952920569        21.502298855964113       21.007375840838677       21.142191288802053       21.01448519458677        21.68441865611851
3                        277.50631806922365       245.40207548176795       254.73854815583695       250.09153322847408       249.6346843067182        261.90632051916384       260.0459340023357        248.8785043803515        244.4906066327286        254.7916962240979        256.65806176213084       248.97888576255434       246.46978407303425       234.55902817197136       239.03520289737378       214.61541689654115       210.53154466671663       218.55471235290514       219.78898274383914       213.78749799876493       213.1090869204457        207.42335886716177       209.87967469513416       261.9124114516959        264.2127612736216        251.07560324493636       281.424259229953         251.9032198290554        256.7808678419142        244.9468141743315        281.6141294385552
6                        390.3433324117866        356.86203594949075       369.7391716246092        365.8059373633474        363.8956556065797        380.82026398617313       379.9855743164004        364.82137372780676       358.6103246751171        373.6122152175519        376.50927868428016       368.8098982204725        365.27292500330384       348.6500397800488        354.9434518882798        326.3874181515598        320.8635616117863        332.59385560925205       334.57480257985117       328.3766848027361        327.00793441679116       317.7746056323068        321.6227717518125        381.66452669267005       382.91297809725177       365.0238706003364        397.21329552619886       365.41687596555107       369.5664124515964        353.97438345991475       392.1193683613211
9                        457.61548946224434       423.29635817656003       438.75790684223523       435.5505544227341        427.19885735306116       447.1862578663179        447.23223210986475       429.047318439665         421.82880381910786       439.9268374127365        443.70802440171906       436.00164427098355       431.58112853731916       411.8575954607388        419.1508567901261        392.84290420339016       386.442619675444         400.8640103704946        403.59415878562015       397.48663421098934       395.3999858659321        383.56433033579333       388.26173563536463       448.81687811862946       449.16212163481725       428.1454507401829        461.35112281830504       433.77563352987386       437.18289625385546       418.8552921735468        457.90370129729035
12                       503.5760036338213        468.6951342392056        486.0467337366224        483.43264973756595       468.851036199522         490.9150208635881        491.62045799132386       471.27012207521557       463.4272059450624        483.62418421450514       488.0672248163577        480.3603147080918        475.2778058161439        453.4523346709974        461.3641788760166        438.32022427471213       431.3320390996889        447.7185970745346        451.06012839812854       445.00621065419216       442.3245130430737        428.5743660332447        433.842490754737         493.15299130866254       492.8217283283851        469.6854930598921        503.5206223170908        480.8642616525053        483.657628661544         463.32278060098315       502.97828199510127
15                       538.6652882757461        503.37492888163285       522.1736234904852        520.0389710780059        500.34594830098          523.9250318035449        525.1349269703135        503.1619465237626        494.8855304696864        516.6133467430953        521.5625641688183        513.8580142746422        508.26899940418195       484.9104582054197        493.2513769317736        473.09831644822884       465.6823535805979        483.57014917653714       487.4050834459555        481.4109777477746        478.2431676413062        463.0183777827315        468.70377245385544       526.6365487561308        525.7877868586421        501.10634960926086       535.3781488914907        516.9983662223076        519.2910156215393        497.4145223333802        537.5128971370382
18                       566.6755563055762        531.0779143791758        551.0136650015493        549.273366247274         525.4434600650576        550.1666687932418        551.7738724045571        528.546243941872         519.9581595160546        542.8412707086217        548.1890213882181        540.4879468760188        534.499960793854         509.9843082996018        518.633449987053         500.90616385443536       493.1700122086837        512.2345576743942        516.4748505490745        510.5445949822781        506.9733171675872        490.5836170801955        496.58294695526365       553.2579491893374        552.0016887030611        526.1548093518209        560.7402019570782        545.9617399889129        547.8393672816175        524.7486648416221        565.1792512899075
21                       590.4626942550849        554.6215809554842        575.4891230968279        574.0820640175771        546.889374117684         572.5274490821171        574.4613836290933        550.215033272892         541.3866179070628        565.1927831055057        570.8681456338328        563.17072745374          556.8546588432996        531.4143610443911        540.30104604067          524.5556630271512        516.5666144265679        536.5930884342215        541.1755192615632        535.3083986994293        531.3941321853519        514.0465069317399        520.2948848259398        575.9356121777803        574.3443866278222        547.5670155828993        582.3938953378585        570.6140178055773        572.1392806489353        548.0530018013397        588.7462072686949
24                       611.6070071007933        575.5645557649641        597.2210789151806        596.1019101603404        566.1193472110797        592.5203816973175        594.731736738865         569.6278089234199        560.6040217235566        585.1793173638338        591.1327380284608        583.4388147041103        576.844225527343         550.6333703918699        559.7130945779041        545.6029915340271        537.4055228182544        558.2444784685149        563.1221163613391        557.3143280843648        553.1027211589826        534.9426333377523        541.3969333042701        596.2007234008568        594.3252486214034        566.7731461294411        601.7960570666565        592.5444591338947        593.7646539058387        568.8363212045493        609.7458627894748
27                       630.9999609735416        594.7861648522671        617.125177984542         616.2582888544049        583.9049273056696        610.9586212619807        613.4100086694286        587.5683094129927        578.3803317578572        603.6130538679865        609.8069726054412        602.1162703937933        595.2807503182225        568.4111935589415        577.6531087299334        564.9253625035717        556.5510950020615        578.0912664436325        583.2272750089681        577.4738590642472        573.0012449343553        554.1380606199031        560.7674308940822        614.8765553217906        612.7552840053819        584.5414481724765        619.7288838349591        612.6512994044265        613.6040451132993        587.9488267300997        629.0416508019368
