% Model:              brazing.mph
% Version:            COMSOL 5.3.0.223
% Date:               Oct 23 2018, 13:34
% Dimension:          1
% Nodes:              161
% Expressions:        1
% Description:        Line graph
% x                       Height
0                         651.7744143806747
1.9693985890610136E-4     651.7579538805386
3.9298030043864816E-4     651.7483729738755
5.884188308682271E-4      651.7456716606856
7.835557095112735E-4      651.7498499409686
9.786925881542028E-4      651.7609078147246
0.0011741311185834375     651.778845281954
0.0013701715601154056     651.8036623426561
0.0015671114190207022     651.8353589968315
0.0017642608961497635     651.5940818181128
0.0019605081241513326     651.3499758612562
0.0021561515411346144     651.103041126262
0.002351492352702621      650.8532776131298
0.0025468331642698894     650.6006853218597
0.0027424765812509564     650.3452642524518
0.0029387238092488436     650.0870144049061
0.0031358732863727766     649.8259357792224
0.0033326885608882563     649.4498886756921
0.0035286060983021257     649.0807601503082
0.0037239228519497995     648.7185502030703
0.003918938519653848      648.3632588339788
0.004113954187357973      648.0148860430335
0.004309270941005876      647.6734318302344
0.004505188478420127      647.3388961955816
0.004702003752936137      647.011279139075
0.004899138702461749      646.6553624487725
0.005095371599302965      646.3183003735107
0.005291000816927052      646.0000929132896
0.005486327495291825      645.7007400681091
0.005681654173656831      645.4202418379695
0.0058772833912816074     645.1585982228704
0.0060735162881239745     644.915809222812
0.006270651237651189      644.6918748377943
0.006467582778148322      644.506744744783
0.006663615013526554      644.3558787048462
0.006859045413116663      644.2392767179839
0.0070541741987231454     644.1569387841961
0.007249302984329781      644.1088649034826
0.007444733383920351      644.0950550758437
0.007640765619299351      644.1155093012792
0.007837697159797551      644.1702275797892
0.008034634474091872      644.1780263122818
0.008230672405352359      644.223166073089
0.008426108448549354      644.3056468622113
0.008621242851524007      644.4254686796484
0.008816377254498534      644.5826315254003
0.009011813297695145      644.7771353994672
0.009207851228955002      645.0089803018489
0.00940478854324844       645.2781662325453
0.00960192671152544       645.591403837997
0.00979816278359587       645.9218441015354
0.009993795147248338      646.2694870231607
0.010189124956984269      646.6343326028725
0.010384454766719743      647.0163808406711
0.010580087130370853      647.4156317365565
0.010776323202439026      647.8320852905288
0.01097346137071288       648.2657415025876
0.011170281912174305      648.6443352537294
0.011366204645540166      649.0337853301055
0.011561526547508357      649.4340917317161
0.011756547339625332      649.8452544585612
0.011951568131742307      650.2672735106407
0.0121468900337105        650.7001488879547
0.012342812767076368      651.1438805905032
0.0125396333085378        651.598468618286
0.012736771215691979      651.886950497526
0.012933007030171178      652.175023836252
0.013128639138602195      652.4626886344641
0.013323968694306592      652.7499448921623
0.013519298250011432      653.0367926093465
0.013714930358443784      653.3232317860168
0.0139111661729252        653.6092624221732
0.014108304080082462      653.8948845178155
0.014305241249097643      653.8979367696211
0.014501279037039759      653.9011663001841
0.014696714938233999      653.9045731095049
0.014891849199866372      653.9081571975831
0.015086983461498874      653.911918564419
0.015282419362693495      653.9158572100125
0.01547845715063625       653.9199731343635
0.015675394319652317      653.9242663374723
0.015872325504405583      653.5706795396322
0.01606835738884011       653.2179837600944
0.016263787440706973      652.8661789988583
0.016458915880206496      652.5152652559244
0.016654044319705866      652.1652425312925
0.016849474371572262      651.8161108249625
0.017045506256006017      651.4678701369347
0.017242437440758204      651.1205204672088
0.01743957168037589       650.5555012317549
0.017635803876907424      649.9810974941151
0.01783143240066149       649.3973092542892
0.018026758388388308      648.8041365122775
0.01822208437611492       648.2015792680799
0.01841771289986836       647.5896375216963
0.018613945096398854      646.9683112731268
0.018811079336015085      646.3376005223713
0.019007894687321662      645.6573574256647
0.01920381230049143       644.9808799406677
0.019399129129200405      644.3081680673804
0.01959414487161704       643.6392218058027
0.01978916061403359       642.9740411559345
0.01998447744274231       642.312626117776
0.020180395055911654      641.654976691327
0.020377210407217645      641.0010928765877
0.020574360469106157      640.3968580880844
0.020770608273960874      639.8159418507722
0.020966252262493188      639.2583441646514
0.021161593642948652      638.7240650297216
0.021356935023404883      638.213104445983
0.021552579011939476      637.7254624134356
0.021748826816797996      637.2611389320793
0.021945976878691802      636.8201340019143
0.022142917141692885      636.4667767453964
0.022338957981867254      636.1586461704882
0.022534396907280062      635.8957422771897
0.02272953417907009       635.6780650655011
0.02292467145086023       635.5056145354221
0.02312011037627338       635.3783906869529
0.02331615121644832       635.2963935200934
0.023513091479450195      635.2596230348437
0.023710025135207962      635.1941627558838
0.02390605945730262       635.1783031404128
0.024101491924457957      635.2120441884305
0.024296622768016963      635.2953858999371
0.024491753611575823      635.4283282749324
0.02468718607873073       635.6108713134164
0.024883220400824673      635.8430150153893
0.025080154056581445      636.124759380851
0.025277299572591536      636.5015588544674
0.025473542893039384      636.9023544790681
0.02566918243840792       637.3271462546528
0.025864519396400307      637.7759341812219
0.026059856354392216      638.2487182587753
0.026255495899759323      638.7454984873127
0.026451739220204794      639.2662748668345
0.026648884736211575      639.8110473973404
0.02684569473774919       640.3936723516532
0.027041607073256636      640.98314319849
0.027236918672681274      641.5794599378511
0.027431929210095855      642.1826225697362
0.027626939747510428      642.7926310941453
0.027822251346935042      643.4094855110786
0.028018163682442445      644.033185820536
0.028214973683980002      644.6637320225175
0.028412120943583204      645.2530851889836
0.028608365984047285      645.83246279497
0.02880400723361381       646.4018648404767
0.02899934588786498       646.9612913255037
0.02919468454211669       647.510742250051
0.029390325791684838      648.0502176141188
0.02958657083215161       648.5797174177067
0.029783718091758563      649.099241660815
0.029980652759780888      649.4435849519443
0.030176688080480362      649.7850863284605
0.030372121537075924      650.1237457903629
0.03056725336547531       650.4595633376521
0.030762385193874833      650.7925389703279
0.030957818650470807      651.1226726883901
0.031153853971170976      651.4499644918391
0.031350788639194264      651.7744143806747
