% Model:              brazing.mph
% Version:            COMSOL 5.3.0.223
% Date:               Oct 23 2018, 12:42
% Dimension:          1
% Nodes:              225
% Expressions:        1
% Description:        Line graph
% x                       Height
0                         654.302169551152
2.02242572596226E-4       654.2952475388843
4.040113375593453E-4      654.2260619686729
6.054635867748898E-4      654.0946128405176
8.067573541103817E-4      653.9009001544188
0.0010080510467017985     653.6449239103762
0.001209503071861434      653.3266841083897
0.0014112714639836859     652.9461807484597
0.001613513515825394      652.5034138305859
0.001815803045808458      652.1131213488817
0.0020176184164428694     651.6769890210716
0.0022191170764546647     651.1950168471556
0.0024204572175778446     650.6672048271336
0.00262179740518867       650.0935529610058
0.002823296204553664      649.4740612487719
0.0030251118070788686     648.8087296904325
0.003227401660948015      648.097558285987
0.0034297372965816655     647.4091347382954
0.003631598594156443      646.6841265708811
0.0038331430353414214     645.9225337837438
0.004034528845142556      645.1243563768837
0.004235914622467191      644.2895943503008
0.004437458966299354      643.4182477039951
0.004639320101874085      642.5103164379665
0.004841655511239337      641.5658005522151
0.005043918276497792      640.7089595658706
0.005245706959792293      639.8397380561873
0.0054471789681153834     638.9581360231651
0.00564849245128538       638.0641534668041
0.005849805932728159      637.1577903871042
0.006051277935873691      636.2390467840655
0.00625306661055245       635.307922657688
0.006455329363777148      634.3644180079715
0.0066576887471433525     633.4503552455845
0.0068595736811967985     632.5540502493773
0.007061141707903535      631.6755030193498
0.007262551112883539      630.8147135555017
0.007463960555734714      629.9716818578335
0.007665528695965537      629.1464079263449
0.00786741381892875       628.3388917610358
0.0080697734661485        627.5491333619067
0.008272395437950266      626.8408800335717
0.008474540847339949      626.153978632375
0.008676367906616744      625.4884291583166
0.008878035577337231      624.8442316113966
0.009079703197965442      624.2213859916147
0.009281530107084053      623.6198922989712
0.00948367526660416       623.0397505334661
0.009686296889411194      622.480960695099
0.009888748367913874      622.1289887742021
0.010090724718905934      621.8134602795163
0.010292383720552634      621.5343752110417
0.010493883896490891      621.2917335687783
0.010695384145210549      621.0855353527262
0.010897043365029401      620.9157805628851
0.011099020079070253      620.7824691992553
0.011301472064648224      620.6856012618365
0.011503924099142101      620.6911707007636
0.011705900863193036      620.7343872237419
0.011907560133099505      620.8152508307717
0.012109060430962503      620.9337615218528
0.012310560654077738      621.0899192969854
0.012512219699917606      621.2837241561691
0.012714196091111104      621.5151760994045
0.012916647604829811      621.7842751266911
0.013119269382981878      622.2042799266906
0.013321414683399362      622.6542531665693
0.013523241722808088      623.1341948463273
0.013724909467002238      623.6441049659649
0.013926577258472442      624.1839835254816
0.014128404439597363      624.7538305248777
0.014330549975836581      625.3536459641531
0.01453317208336263       625.9834298433078
0.014735531766219815      626.6825390576319
0.014937416940401616      627.3932441287947
0.015138985143475461      628.1155450567965
0.015340394656791169      628.849441841637
0.015541804135826716      629.5949344833165
0.015743372236141022      630.3520229818349
0.015945257239325793      631.1207073371921
0.01614761668334845       631.9009875493882
0.01634987940592303       632.7993517746323
0.016551668047823844      633.6846579449838
0.016753140015983766      634.5569060604428
0.0169544534601584        635.4160961210091
0.017155766903708087      636.2622281266829
0.017357238869994664      637.0953020774641
0.017559027508778132      637.9153179733527
0.01776129022699866       638.7222758143488
0.017963625484858744      639.5567288391692
0.018165486461237414      640.367031712832
0.018367030641941378      641.1531844353373
0.018568416255992027      641.9151870066852
0.018769801906169285      642.6530394268756
0.018971346195167795      643.3667416959084
0.019173207351754082      644.0562938137837
0.019375542861313405      644.7216957805015
0.019577832661189145      645.4104450532565
0.019779648217873542      646.0475220104021
0.019981146975907166      646.6329266519381
0.020182487123025287      647.1666589778645
0.020383827220813066      647.6487189881815
0.020585325830972126      648.0791066828888
0.020787141141585735      648.4578220619868
0.020989430597769934      648.7848651254751
0.021191672662378012      649.2236684141899
0.021393441061935803      649.5999405186882
0.02159489309031221       649.91368143897
0.021796186783028852      650.1648911750351
0.021997480548535182      650.3535697268837
0.022198932795108938      650.4797170945159
0.022400701557758636      650.5433332779313
0.02260294412950465       650.5444182771304
0.02280539620920995       650.5943961111766
0.023007373018156245      650.5796522083232
0.02320903233274668       650.5001865685704
0.023410532675187733      650.355999191918
0.023612032942881025      650.1470900783662
0.023813692033404853      649.873459227915
0.024015668469493705      649.535106640564
0.024218120028423832      649.1320323163137
0.024420742013481003      648.7565225010369
0.02462288751935683       648.3282342796521
0.02482471476325633       647.847167652159
0.02502638271145666       647.3133226185579
0.025228050706933344      646.7266991788487
0.025429878092549915      646.0872973330314
0.025632023834248962      645.3951170811059
0.025834646148682177      644.6501584230725
0.026037006051731277      643.9044522885329
0.026238891444565628      643.119004466826
0.02644045986526205       642.2938149579518
0.026641869595683754      641.4288837619102
0.02684327929182417       640.5242108787014
0.027044847609757647      639.5797963083253
0.02724673283158932       638.5956400507816
0.027449092495796006      637.5717421060708
0.02765135518998453       636.5813122572322
0.027853143803698084      635.5819400238689
0.028054615743803996      634.573625405981
0.028255929159991804      633.5563684035685
0.028457242575555555      632.5301690166314
0.028658714513790734      631.4950272451696
0.028860503124391312      630.450943089183
0.029062765814231884      629.3979165486719
0.029265100752448706      628.3505918219938
0.02946696141141544       627.3279654980784
0.029668505276199596      626.3300375769254
0.029869890575077548      625.3568080585351
0.03007127591008127       624.4082769429074
0.030272819883157453      623.4844442300422
0.03047468072232762       622.5853099199396
0.030677015912237836      621.7108740125997
0.030879305594778746      620.9138042384724
0.03108112103494649       620.1519506874528
0.031282619677010744      619.4253133595406
0.03148395970843373       618.7338922547362
0.0316852996905265        618.0776873730393
0.031886798184716555      617.4566987144502
0.032088613378814135      616.8709262789685
0.03229090271766436       616.3203700665944
0.03249314477533616       615.9585432560115
0.03269491316800606       615.6488401680255
0.03289636518952694       615.3912608026362
0.03309765887540427       615.1858051598438
0.033298952634071295      615.0324732396481
0.033500404873789524      614.9312650420494
0.03370217362955133       614.8821805670473
0.03390441619436107       614.8852198146421
0.03410686840969767       614.9925756914623
0.03430884535332711       615.1524280985869
0.0345105048019665        615.3647770360161
0.034712005278138794      615.6296225037496
0.03491350567956333       615.9469645017875
0.03511516490413611       616.3168030301299
0.035317141474908095      616.7391380887768
0.03551959316946952       617.213969677728
0.035722216260139425      617.833852637145
0.03592436286389621       618.4938092478433
0.036126191200505704      619.1938395098231
0.03632786023882611       619.9339434230841
0.03652952932442421       620.7141209876265
0.036731357802754806      621.5343722034503
0.03693350464234149       622.3946970705555
0.03713612806239678       623.295095588942
0.03733848789969145       624.2580053789793
0.037540373227224554      625.2401281698284
0.03774194158292153       626.241463961489
0.03794335124849304       627.2620127539612
0.03814476087977932       628.3017745472451
0.03834632913270157       629.3607493413407
0.03854821428921239       630.438937136248
0.038750573887637245      631.5363379319668
0.03895283596123875       632.7042176309943
0.039154623958694366      633.858420789424
0.039356095285438375      634.9989474072563
0.03955740808971597       636.1257974844908
0.03975872089337115       637.2389710211278
0.03996019221824938       638.3384680171671
0.04016198021260023       639.424288472609
0.04036424228186526       640.4964323874532
0.040566577948397485      641.555658765065
0.040768439330593605      642.5806768129889
0.04096998391520435       643.5714865312252
0.04117136993220262       644.5280879197736
0.04137275598532357       645.4504809786342
0.04157430067821714       646.3386657078073
0.04177616224060133       647.1926421072923
0.0419784981588055        648.0124101770897
0.04218078754816035       648.8200570616319
0.04238260269718259       649.5654237067421
0.04258410104946696       650.2485101124199
0.04278544079179545       650.8693162786658
0.04298678048479618       651.4278422054795
0.043188278689213704      651.924087892861
0.043390093592177985      652.3580533408104
0.04359238263785921       652.7297385493276
0.043794623705544454      653.1637459739593
0.04399639111513442       653.5299095273327
0.04419784215819482       653.828229209448
0.04439913486792596       654.0587050203051
0.044600427650446826      654.2213369599041
0.04480187891170468       654.316125028245
0.045003646684386715      654.3430692253276
0.04520588825921017       654.302169551152
