% Model:              brazing.mph
% Version:            COMSOL 5.3.0.223
% Date:               Oct 23 2018, 12:51
% Dimension:          1
% Nodes:              225
% Expressions:        1
% Description:        Line graph
% x                       Height
0                         646.4183573800676
2.02242572596226E-4       646.4089459309643
4.040113375593453E-4      646.3361529783925
6.054635867748898E-4      646.1999785223525
8.067573541103817E-4      646.0004225628439
0.0010080510467017985     645.7374850998671
0.001209503071861434      645.4111661334216
0.0014112714639836859     645.021465663508
0.001613513515825394      644.5683836901259
0.001815803045808458      644.1676039277248
0.0020176184164428694     643.7202442643082
0.0022191170764546647     643.2263046998763
0.0024204572175778446     642.6857852344291
0.00262179740518867       642.0986858679665
0.002823296204553664      641.4650066004884
0.0030251118070788686     640.784747431995
0.003227401660948015      640.0579083624863
0.0034297372965816655     639.3547297782412
0.003631598594156443      638.6143571616673
0.0038331430353414214     637.8367905127644
0.004034528845142556      637.0220298315326
0.004235914622467191      636.1700751179718
0.004437458966299354      635.280926372082
0.004639320101874085      634.3545835938631
0.004841655511239337      633.3910467833155
0.005043918276497792      632.5167957312326
0.005245706959792293      631.6300763912479
0.0054471789681153834     630.7308887633618
0.00564849245128538       629.8192328475739
0.005849805932728159      628.8951086438842
0.006051277935873691      627.958516152293
0.00625306661055245       627.0094553728001
0.006455329363777148      626.0479263054054
0.0066576887471433525     625.1171532038684
0.0068595736811967985     624.2047507170411
0.007061141707903535      623.3107188449235
0.007262551112883539      622.4350575875156
0.007463960555734714      621.5777669448175
0.007665528695965537      620.7388469168291
0.00786741381892875       619.9182975035504
0.0080697734661485        619.1161187049814
0.008272395437950266      618.3972835647287
0.008474540847339949      617.7006290825664
0.008676367906616744      617.0261552584947
0.008878035577337231      616.3738620925133
0.009079703197965442      615.7437495846224
0.009281530107084053      615.135817734822
0.00948367526660416       614.550066543112
0.009686296889411194      613.9864960094926
0.009888748367913874      613.6333633263309
0.010090724718905934      613.3177680499381
0.010292383720552634      613.0397101803145
0.010493883896490891      612.7991897174596
0.010695384145210549      612.5962066613738
0.010897043365029401      612.430761012057
0.011099020079070253      612.3028527695091
0.011301472064648224      612.2124819337303
0.011503924099142101      612.227111109088
0.011705900863193036      612.2804487904049
0.011907560133099505      612.3724949776807
0.012109060430962503      612.5032496709156
0.012310560654077738      612.6727128701095
0.012512219699917606      612.8808845752624
0.012714196091111104      613.1277647863743
0.012916647604829811      613.4133535034453
0.013119269382981878      613.8523868699484
0.013321414683399362      614.3221897486848
0.013523241722808088      614.8227621396544
0.013724909467002238      615.3541040428571
0.013926577258472442      615.916215458293
0.014128404439597363      616.5090963859622
0.014330549975836581      617.1327468258644
0.01453317208336263       617.7871667779999
0.014735531766219815      618.5125382316548
0.014937416940401616      619.249789264328
0.015138985143475461      619.9989198760192
0.015340394656791169      620.7599300667287
0.015541804135826716      621.5328198364563
0.015743372236141022      622.3175891852022
0.015945257239325793      623.1142381129662
0.01614761668334845       623.9227666197484
0.01634987940592303       624.8507398872526
0.016551668047823844      625.7652342168132
0.016753140015983766      626.6662496084298
0.0169544534601584        627.5537860621026
0.017155766903708087      628.4278435778318
0.017357238869994664      629.2884221556171
0.017559027508778132      630.1355217954587
0.01776129022699866       630.9691424973563
0.017963625484858744      631.8311550157015
0.018165486461237414      632.6681917214211
0.018367030641941378      633.4802526145147
0.018568416255992027      634.2673376949825
0.018769801906169285      635.0294469628246
0.018971346195167795      635.7665804180409
0.019173207351754082      636.4787380606315
0.019375542861313405      637.1659198905961
0.019577832661189145      637.8768958710538
0.019779648217873542      638.5349078274512
0.019981146975907166      639.1399557597887
0.020182487123025287      639.692039668066
0.020383827220813066      640.1911595522831
0.020585325830972126      640.6373154124402
0.020787141141585735      641.0305072485372
0.020989430597769934      641.370735060574
0.021191672662378012      641.8227586230095
0.021393441061935803      642.2107422808544
0.02159489309031221       642.5346860341091
0.021796186783028852      642.7945898827734
0.021997480548535182      642.9904538268473
0.022198932795108938      643.1222778663308
0.022400701557758636      643.1900620012241
0.02260294412950465       643.1938062315269
0.02280539620920995       643.2471982716164
0.023007373018156245      643.2342671134264
0.02320903233274668       643.155012756957
0.023410532675187733      643.009435202208
0.023612032942881025      642.7975344491796
0.023813692033404853      642.5193104978715
0.024015668469493705      642.1747633482842
0.024218120028423832      641.7638930004172
0.024420742013481003      641.3782738174243
0.02462288751935683       640.9384202134294
0.02482471476325633       640.4443321884326
0.02502638271145666       639.8960097424339
0.025228050706933344      639.2934528754332
0.025429878092549915      638.6366615874305
0.025632023834248962      637.9256358784261
0.025834646148682177      637.1603757484195
0.026037006051731277      636.3937855393789
0.026238891444565628      635.5862985480951
0.02644045986526205       634.7379147745679
0.026641869595683754      633.8486342187975
0.02684327929182417       632.918456880784
0.027044847609757647      631.947382760527
0.02724673283158932       630.9354118580269
0.027449092495796006      629.8825441732835
0.02765135518998453       628.8622346863947
0.027853143803698084      627.8325746443583
0.028054615743803996      626.7935640471743
0.028255929159991804      625.7452028948428
0.028457242575555555      624.6874911873638
0.028658714513790734      623.620428924737
0.028860503124391312      622.5440161069628
0.029062765814231884      621.458252734041
0.029265100752448706      620.3785228979967
0.02946696141141544       619.3239323790729
0.029668505276199596      618.2944811772694
0.029869890575077548      617.2901692925863
0.03007127591008127       616.3109967250235
0.030272819883157453      615.3569634745811
0.03047468072232762       614.4280695412593
0.030677015912237836      613.5243149250576
0.030879305594778746      612.6991568586279
0.03108112103494649       611.9102370738609
0.031282619677010744      611.1575555707568
0.03148395970843373       610.4411123493153
0.0316852996905265        609.7609074095366
0.031886798184716555      609.1169407514205
0.032088613378814135      608.5092123749672
0.03229090271766436       607.9377222801768
0.03249314477533616       607.5571504747969
0.03269491316800606       607.2301294435032
0.03289636518952694       606.9566591862957
0.03309765887540427       606.7367397031744
0.033298952634071295      606.5703709941394
0.033500404873789524      606.4575530591906
0.03370217362955133       606.398285898328
0.03390441619436107       606.3925695115516
0.03410686840969767       606.4935360959969
0.03430884535332711       606.6484849806897
0.0345105048019665        606.8574161656301
0.034712005278138794      607.1203296508181
0.03491350567956333       607.4372254362538
0.03511516490413611       607.808103521937
0.035317141474908095      608.232963907868
0.03551959316946952       608.7118065940465
0.035722216260139425      609.3378087328393
0.03592436286389621       610.0050712771803
0.036126191200505704      610.7135942270696
0.03632786023882611       611.4633775825072
0.03652952932442421       612.254421343493
0.036731357802754806      613.0867255100271
0.03693350464234149       613.9602900821094
0.03713612806239678       614.87511505974
0.03733848789969145       615.8539329515719
0.037540373227224554      616.852623139324
0.03774194158292153       617.8711856229964
0.03794335124849304       618.9096204025891
0.03814476087977932       619.9679274781021
0.03834632913270157       621.0461068495351
0.03854821428921239       622.1441585168885
0.038750573887637245      623.2620824801621
0.03895283596123875       624.451234350183
0.039154623958694366      625.6265323092445
0.039356095285438375      626.7879763573465
0.03955740808971597       627.9355664944891
0.03975872089337115       629.0693027206722
0.03996019221824938       630.1891850358959
0.04016198021260023       631.2952134401602
0.04036424228186526       632.387387933465
0.040566577948397485      633.4665916287342
0.040768439330593605      634.5108311897482
0.04096998391520435       635.5201066165068
0.04117136993220262       636.4944179090102
0.04137275598532357       637.4337650672583
0.04157430067821714       638.338148091251
0.04177616224060133       639.2075669809884
0.0419784981588055        640.0420217364706
0.04218078754816035       640.8641753307835
0.04238260269718259       641.6227548380862
0.04258410104946696       642.3177602583787
0.04278544079179545       642.9491915916609
0.04298678048479618       643.517048837933
0.043188278689213704      644.0213319971947
0.043390093592177985      644.4620410694464
0.04359238263785921       644.8391760546878
0.043794623705544454      645.2784084320598
0.04399639111513442       645.6485451775177
0.04419784215819482       645.9495862910613
0.04439913486792596       646.181531772691
0.044600427650446826      646.3443816224063
0.04480187891170468       646.4381358402077
0.045003646684386715      646.4627944260947
0.04520588825921017       646.4183573800676
