% Model:              brazing.mph
% Version:            COMSOL 5.3.0.223
% Date:               Oct 23 2018, 12:36
% Dimension:          1
% Nodes:              225
% Expressions:        1
% Description:        Line graph
% x                       Height
0                         602.1664552018462
2.1191841480136804E-4     602.0811786339915
4.2353438892247565E-4     601.957687727627
6.349689892252786E-4      601.7959824827527
8.463435942227858E-4      601.5960628993683
0.001057779685752053      601.3579289774747
0.001269398639759412      601.0815807170706
0.001481321517995422      600.7670181181569
0.0017252358262731596     600.3475540765864
0.0019686866163640313     599.8972230482957
0.0022118589563155885     599.4160250332843
0.002454938550168189      598.9039600315526
0.0026981113144448556     598.3610280431008
0.0029415629522145732     597.7872290679283
0.0031854785295931678     597.1825631060354
0.0034450106912723537     596.4413920277027
0.0037039863009040125     595.6686747847118
0.003962627412610827      594.8644113770629
0.0042211569424298        594.0286018047557
0.004479798094906585      593.1612460677907
0.004738773785972872      592.2623441661672
0.004998306069542035      591.3318960998857
0.005274868491808245      590.2496125892399
0.005550758931995686      589.1501235095287
0.0058262454501036105     588.0334288607522
0.006101597285810183      586.8995286429106
0.006377084073678616      585.7484228560039
0.006652975052596927      584.5801115000315
0.006929538280995558      583.3945945749942
0.007206101510950518      582.1710325494171
0.007481992491406557      580.9640343186242
0.007757479280801014      579.7735998826153
0.00803283111802884       578.5997292413906
0.008308317637660222      577.4424223949503
0.008584208079380276      576.3016793432938
0.008860770503195153      575.1775000864217
0.009120302815147717      574.1242634898871
0.00937927853441616       573.1110084705825
0.009637919714987194      572.1377350285074
0.009896449272866283      571.2044431636623
0.010155090412673047      570.311132876047
0.010414066050518256      569.4578041656613
0.01067359824059789       568.6444570325054
0.010917512776055054      567.903861121021
0.011160965100129169      567.213166208
0.011404139717480647      566.5723722934424
0.01164722176512739       565.9814793773481
0.011890396591516505      565.4404874597177
0.012133849333188814      564.9493965405504
0.012377764493855997      564.5082066198468
0.01258968694000722       564.1655605237262
0.012801305803204788      563.8627817016226
0.013012742322906452      563.599870153536
0.013224118052332232      563.3768258794668
0.01343555464954572       563.1936488794147
0.013647173667633327      563.0503391533795
0.013859096345786744      562.9468967013617
0.014071014760598048      562.8985692567281
0.014282630734729056      562.8892838081633
0.01449406533504172       562.9190403556673
0.014705439940049088      562.9878388992399
0.014916876031588231      563.0956794388816
0.015128494985605482      563.2425619745915
0.015340417863851432      563.4284865063704
0.01558433217214941       563.6598262638132
0.015827782962260412      563.9484769267805
0.016070955302232025      564.2944384952718
0.016314034896104664      564.6977109692876
0.0165572076604014        565.1582943488279
0.01680065929819124       565.6761886338923
0.01704457487559009       566.251393824481
0.01730410703726679       566.8797581610695
0.017563082646895985      567.5472408441543
0.01782172375860034       568.2538418737357
0.018080253288416847      568.9995612498136
0.01833889444089119       569.7843989723882
0.018597870131955005      570.6083550414589
0.018857402415521692      571.4714294570264
0.019133964837753384      572.4016574754937
0.019409855277906563      573.3495664668047
0.019685341795980367      574.3151564309593
0.019960693631652874      575.2984273679574
0.0202361804194872        576.2993792777994
0.020512071398371242      577.3180121604846
0.020788634626735362      578.3543260160136
0.02106519785666259       579.3728520116063
0.021341088837091095      580.379460562838
0.021616575626458134      581.3741516697083
0.02189192746365859       582.3569253322177
0.022167413983262562      583.327781550366
0.02244330442495508       584.286720324153
0.022719866848742224      585.2337416535789
0.022979399160698737      586.0351438854408
0.023238374879971102      586.814046771225
0.023497016060546046      587.5704503109315
0.023755545618429033      588.3043545045604
0.02401418675823971       589.015759352112
0.024273162396088833      589.7046648535854
0.024532694586172417      590.3710710089814
0.02477660912165014       590.9288501331044
0.02502006144574469       591.4541731288874
0.025263236063116538      591.9470399963302
0.025506318110783622      592.4074507354326
0.025749492937193107      592.8354053461952
0.02599294567888585       593.2309038286172
0.026236860839573585      593.5939461826993
0.026448783285734738      593.8587388984521
0.02666040214894219       594.1049892419285
0.026871838668653707      594.3326972131283
0.027083214398089334      594.5418628120517
0.027294650995312687      594.7324860386988
0.027506270013410168      594.9045668930692
0.02771819269157351       595.0581053751632
0.02793011110637494       595.1286089233839
0.028141727080496122      595.1793108100131
0.028353161680798985      595.2102110350511
0.028564536285796558      595.2213095984979
0.028775972377325904      595.2126065003536
0.028987591331333325      595.1841017406177
0.029199514209569403      595.1357953192908
0.02944342851784522       594.9563250261668
0.02968687930793418       594.736306492418
0.02993005164788383       594.4757397180441
0.030173131241734534      594.1746247030452
0.0304163040060093        593.8329614474214
0.0306597556437771        593.4507499511724
0.030903671221153783      593.0279902142986
0.031163203382828072      592.4293874495672
0.03142217899245488       591.7869390058183
0.03168082010415685       591.1006448830516
0.03193934963397098       590.3705050812673
0.032197990786442934      589.5965196004657
0.03245696647750436       588.7786884406461
0.032716498761068635      587.917011601809
0.03299306118333142       586.8392077159489
0.03326895162351545       585.740472901578
0.03354443814161999       584.6208071586963
0.03381978997732317       583.4802104873037
0.034095276765188226      582.3186828874007
0.03437116774410313       581.1362243589864
0.03464773097249833       579.9328349020616
0.034924294202460265      578.6706561295368
0.03520018518292322       577.4269313209517
0.03547567197232456       576.2016604763057
0.035751023809559274      574.9948435955994
0.036026510329197556      573.8064806788328
0.036302400770924524      572.6365717260053
0.03657896319474637       571.4851167371176
0.036838495506703706      570.4069640804901
0.03709747122597688       569.3792783201063
0.037356112406552636      568.4020594559661
0.03761464196443644       567.4753074880696
0.03787328310424792       566.5990224164169
0.03813225874209787       565.7732042410076
0.03839179093218227       564.9978529618422
0.03863570546763781       564.2969255766388
0.038879157791710306      563.6579369450902
0.03912233240906017       563.0808870671957
0.03936541445670531       562.5657759429558
0.039608589283092806      562.1126035723707
0.039852042024763494      561.7213699554396
0.04009595718542905       561.3920750921633
0.040307879631580334      561.1395548378031
0.04051949849477797       560.9365047767022
0.0407309350144797        560.7829249088604
0.040942310743905544      560.6788152342781
0.04115374734111909       560.6241757529552
0.04136536635920676       560.6190064648913
0.04157728903736024       560.663307370087
0.04178920745215007       560.7627251973295
0.042000823426259694      560.9101065797347
0.042212258026551035      561.1054515173026
0.04242363263153709       561.3487600100334
0.0426350687230549        561.640032057927
0.042846687677050764      561.9792676609832
0.04305861055527523       562.3664668192023
0.04330252486354604       562.83746232452
0.043545975653630026      563.3736713469046
0.04378914799357473       563.9750938863565
0.044032227587420474      564.6417299428756
0.04427540035169028       565.3735795164619
0.04451885198945311       566.170642607115
0.044762767566824783      567.0329192148355
0.045022299728516735      567.979281005158
0.04528127533816108       568.9700210073212
0.045539916449880535      570.0051392213253
0.045798445979712124      571.0846356471701
0.046057087132201545      572.2085102848558
0.04631606282328052       573.3767631343821
0.046575595106862454      574.5893941957495
0.04685215752913061       575.8855312629227
0.04712804796931999       577.2028958893616
0.04740353448742985       578.5414880750662
0.04767888632313835       579.9013078200368
0.04795437311100872       581.2823551242733
0.048230264089928976      582.6846299877752
0.048506827318329566      584.1081324105432
0.04878339054829114       585.4670391957355
0.049059281528753745      586.8052793663575
0.04933476831815475       588.1228529224092
0.0496101201553891        589.4197598638905
0.04988560667502701       590.696000190802
0.05016149711675364       591.9515739031428
0.050438059540575134      593.1864810009138
0.05069759185254397       594.1878826552411
0.05095656757182859       595.1440131987193
0.05121520875241573       596.0548726313483
0.05147373831031092       596.9204609531283
0.051732379450133786      597.7407781640595
0.05199135508799517       598.5158242641413
0.05225088727809108       599.2455992533742
0.0524948018135407        599.8185737424177
0.052738254137607306      600.3347943024183
0.05298142875495131       600.7942609333759
0.05322451080259058       601.1969736352906
0.0534676856289722        601.5429324081628
0.05371113837063701       601.8321372519915
0.05395505353129665       602.0645881667776
0.05416697597743634       602.2014931343699
0.054378594840622414      602.2976139239586
0.05459003136031263       602.3529505355434
0.05480140708972696       602.3675029691246
0.05501284368692898       602.3412712247024
0.0552244627050051        602.2742553022761
0.05543638538314697       602.1664552018462
