% Model:              brazing.mph
% Version:            COMSOL 5.3.0.223
% Date:               Oct 23 2018, 13:24
% Dimension:          1
% Nodes:              161
% Expressions:        1
% Description:        Line graph
% x                       Height
0                         624.847044947308
1.9693985890610136E-4     624.8223402483155
3.9298030043864816E-4     624.8071121734686
5.884188308682271E-4      624.801360722767
7.835557095112735E-4      624.8050858962108
9.786925881542028E-4      624.8182876938
0.0011741311185834375     624.8409661155347
0.0013701715601154056     624.8731211614148
0.0015671114190207022     624.9147528314403
0.0017642608961497635     624.6751769284953
0.0019605081241513326     624.4313654062877
0.0021561515411346144     624.1833182648172
0.002351492352702621      623.9310355040842
0.0025468331642698894     623.6745171240884
0.0027424765812509564     623.4137631248301
0.0029387238092488436     623.1487735063089
0.0031358732863727766     622.8795482685251
0.0033326885608882563     622.504670968281
0.0035286060983021257     622.1349216227909
0.0037239228519497995     621.7703002320549
0.003918938519653848      621.410806796073
0.004113954187357973      621.0564413148451
0.004309270941005876      620.7072037883713
0.004505188478420127      620.3630942166517
0.004702003752936137      620.0241125996861
0.004899138702461749      619.6691686761451
0.005095371599302965      619.3314089525862
0.005291000816927052      619.0108334290095
0.005486327495291825      618.707442105415
0.005681654173656831      618.4212349818026
0.0058772833912816074     618.1522120581723
0.0060735162881239745     617.9003733345241
0.006270651237651189      617.6657188108582
0.006467582778148322      617.4832905182947
0.006663615013526554      617.3346291497744
0.006859045413116663      617.219734705297
0.0070541741987231454     617.1386071848627
0.007249302984329781      617.0912465884714
0.007444733383920351      617.0776529161233
0.007640765619299351      617.0978261678182
0.007837697159797551      617.1517663435561
0.008034634474091872      617.1508482452093
0.008230672405352359      617.1876013554104
0.008426108448549354      617.2620256741593
0.008621242851524007      617.3741212014561
0.008816377254498534      617.5238879373007
0.009011813297695145      617.7113258816933
0.009207851228955002      617.9364350346335
0.00940478854324844       618.1992153961218
0.00960192671152544       618.5192677754673
0.00979816278359587       618.854880624707
0.009993795147248338      619.2060539438411
0.010189124956984269      619.5727877328694
0.010384454766719743      619.9550819917921
0.010580087130370853      620.3529367206091
0.010776323202439026      620.7663519193205
0.01097346137071288       621.1953275879262
0.011170281912174305      621.5777513510452
0.011366204645540166      621.9700245814915
0.011561526547508357      622.3721472792649
0.011756547339625332      622.7841194443656
0.011951568131742307      623.2059410767935
0.0121468900337105        623.6376121765484
0.012342812767076368      624.0791327436306
0.0125396333085378        624.5305027780399
0.012736771215691979      624.8245649080196
0.012933007030171178      625.1166275278548
0.013128639138602195      625.4066906375455
0.013323968694306592      625.6947542370917
0.013519298250011432      625.9808183264935
0.013714930358443784      626.2648829057507
0.0139111661729252        626.5469479748634
0.014108304080082462      626.8270135338316
0.014305241249097643      626.8234258422461
0.014501279037039759      626.821662247031
0.014696714938233999      626.8217227481861
0.014891849199866372      626.8236073457114
0.015086983461498874      626.8273160396069
0.015282419362693495      626.8328488298729
0.01547845715063625       626.8402057165091
0.015675394319652317      626.8493866995155
0.015872325504405583      626.4723645046397
0.01606835738884011       626.0989478289745
0.016263787440706973      625.7291366725199
0.016458915880206496      625.3629310352758
0.016654044319705866      625.0003309172422
0.016849474371572262      624.6413363184192
0.017045506256006017      624.2859472388068
0.017242437440758204      623.934163678405
0.01743957168037589       623.3582121885305
0.017635803876907424      622.7721812555105
0.01783143240066149       622.176070879345
0.018026758388388308      621.569881060034
0.01822208437611492       620.9536117975775
0.01841771289986836       620.3272630919756
0.018613945096398854      619.6908349432281
0.018811079336015085      619.0443273513351
0.019007894687321662      618.359028513194
0.01920381230049143       617.6763290219121
0.019399129129200405      616.9962288774898
0.01959414487161704       616.3187280799269
0.01978916061403359       615.6438266292236
0.01998447744274231       614.9715245253796
0.020180395055911654      614.301821768395
0.020377210407217645      613.6347183582699
0.020574360469106157      613.0306807113262
0.020770608273960874      612.4486956757819
0.020966252262493188      611.8887632516368
0.021161593642948652      611.3508834388911
0.021356935023404883      610.8350562375446
0.021552579011939476      610.3412816475975
0.021748826816797996      609.8695596690495
0.021945976878691802      609.419890301901
0.022142917141692885      609.0720373479651
0.022338957981867254      608.7692706238133
0.022534396907280062      608.5115901294458
0.02272953417907009       608.2989958648626
0.02292467145086023       608.1314878300636
0.02312011037627338       608.0090660250488
0.02331615121644832       607.9317304498182
0.023513091479450195      607.899481104372
0.023710025135207962      607.8317127326666
0.02390605945730262       607.8141534430384
0.024101491924457957      607.8468032354876
0.024296622768016963      607.9296621100143
0.024491753611575823      608.0627300666184
0.02468718607873073       608.2460071052998
0.024883220400824673      608.4794932260587
0.025080154056581445      608.763188428895
0.025277299572591536      609.1552213811751
0.025473542893039384      609.5698382937059
0.02566918243840792       610.007039166487
0.025864519396400307      610.4668239995187
0.026059856354392216      610.949192792801
0.026255495899759323      611.4541455463335
0.026451739220204794      611.9816822601167
0.026648884736211575      612.5318029341504
0.02684569473774919       613.1298499704075
0.027041607073256636      613.733867482659
0.027236918672681274      614.3438554709047
0.027431929210095855      614.9598139351447
0.027626939747510428      615.5817428753791
0.027822251346935042      616.2096422916076
0.028018163682442445      616.8435121838305
0.028214973683980002      617.4833525520477
0.028412120943583204      618.0927607267217
0.028608365984047285      618.6907233713916
0.02880400723361381       619.2772404860572
0.02899934588786498       619.8523120707183
0.02919468454211669       620.4159381253752
0.029390325791684838      620.9681186500277
0.02958657083215161       621.5088536446758
0.029783718091758563      622.0381431093197
0.029980652759780888      622.3936762629182
0.030176688080480362      622.747946438274
0.030372121537075924      623.1009536353869
0.03056725336547531       623.4526978542568
0.030762385193874833      623.8031790948838
0.030957818650470807      624.1523973572681
0.031153853971170976      624.5003526414094
0.031350788639194264      624.847044947308
