% Model:              brazing.mph
% Version:            COMSOL 5.3.0.223
% Date:               Oct 23 2018, 12:44
% Dimension:          1
% Nodes:              225
% Expressions:        1
% Description:        Line graph
% x                       Height
0                         629.9586603575759
2.02242572596226E-4       629.9485482492702
4.040113375593453E-4      629.8819204474829
6.054635867748898E-4      629.7587769522142
8.067573541103817E-4      629.5791177634642
0.0010080510467017985     629.3429428812326
0.001209503071861434      629.0502523055197
0.0014112714639836859     628.7010460363252
0.001613513515825394      628.2953240736495
0.001815803045808458      627.9217485222255
0.0020176184164428694     627.5064968404968
0.0022191170764546647     627.0495690284638
0.0024204572175778446     626.5509650861261
0.00262179740518867       626.0106850134839
0.002823296204553664      625.4287288105372
0.0030251118070788686     624.8050964772858
0.003227401660948015      624.1397880137301
0.0034297372965816655     623.4912313204093
0.003631598594156443      622.8100657935798
0.0038331430353414214     622.0962914332418
0.004034528845142556      621.3499082393953
0.004235914622467191      620.5709162120401
0.004437458966299354      619.7593153511764
0.004639320101874085      618.9151056568039
0.004841655511239337      618.038287128923
0.005043918276497792      617.2221367990466
0.005245706959792293      616.3959948163164
0.0054471789681153834     615.5598611807327
0.00564849245128538       614.7137358922954
0.005849805932728159      613.8576189510044
0.006051277935873691      612.9915103568601
0.00625306661055245       612.1154101098618
0.006455329363777148      611.2293182100101
0.0066576887471433525     610.3696920086586
0.0068595736811967985     609.5266993616962
0.007061141707903535      608.7003402691229
0.007262551112883539      607.8906147309388
0.007463960555734714      607.0975227471438
0.007665528695965537      606.321064317738
0.00786741381892875       605.5612394427212
0.0080697734661485        604.8180481220937
0.008272395437950266      604.1427363238379
0.008474540847339949      603.4900101744134
0.008676367906616744      602.8598696738204
0.008878035577337231      602.2523148220588
0.009079703197965442      601.6673456191285
0.009281530107084053      601.1049620650297
0.00948367526660416       600.5651641597622
0.009686296889411194      600.0479519033261
0.009888748367913874      599.6989222994752
0.010090724718905934      599.3860591071307
0.010292383720552634      599.1093623262926
0.010493883896490891      598.8688319569611
0.010695384145210549      598.664467999136
0.010897043365029401      598.4962704528175
0.011099020079070253      598.3642393180052
0.011301472064648224      598.2683745946995
0.011503924099142101      598.2608943729065
0.011705900863193036      598.2905684805514
0.011907560133099505      598.3573969176347
0.012109060430962503      598.4613796841558
0.012310560654077738      598.6025167801149
0.012512219699917606      598.7808082055122
0.012714196091111104      598.9962539603475
0.012916647604829811      599.248854044621
0.013119269382981878      599.6263221905149
0.013321414683399362      600.0333219602693
0.013523241722808088      600.4698533538841
0.013724909467002238      600.9359163713596
0.013926577258472442      601.4315110126954
0.014128404439597363      601.956637277892
0.014330549975836581      602.5112951669488
0.01453317208336263       603.0954846798664
0.014735531766219815      603.73857129756
0.014937416940401616      604.3945458126024
0.015138985143475461      605.0634082249936
0.015340394656791169      605.7451585347336
0.015541804135826716      606.4397967418223
0.015743372236141022      607.14732284626
0.015945257239325793      607.8677368480465
0.01614761668334845       608.6010387471816
0.01634987940592303       609.4243096867668
0.016551668047823844      610.237110052224
0.016753140015983766      611.0394398435535
0.0169544534601584        611.831299060755
0.017155766903708087      612.6126877038287
0.017357238869994664      613.3836057727746
0.017559027508778132      614.1440532675924
0.01776129022699866       614.8940301882824
0.017963625484858744      615.6694395621219
0.018165486461237414      616.4224293838984
0.018367030641941378      617.1529996536119
0.018568416255992027      617.8611503712625
0.018769801906169285      618.5468815368502
0.018971346195167795      619.2101931503747
0.019173207351754082      619.8510852118366
0.019375542861313405      620.4695577212352
0.019577832661189145      621.1037616878948
0.019779648217873542      621.6923906257806
0.019981146975907166      622.2354445348927
0.020182487123025287      622.7329234152311
0.020383827220813066      623.1848272667959
0.020585325830972126      623.5911560895869
0.020787141141585735      623.9519098836041
0.020989430597769934      624.2670886488477
0.021191672662378012      624.6618923321395
0.021393441061935803      625.0004907018147
0.02159489309031221       625.2828837578733
0.021796186783028852      625.5090715003153
0.021997480548535182      625.6790539291407
0.022198932795108938      625.7928310443494
0.022400701557758636      625.8504028459415
0.02260294412950465       625.8517693339171
0.02280539620920995       625.893962578798
0.023007373018156245      625.8778247770224
0.02320903233274668       625.8033559285903
0.023410532675187733      625.6705560335018
0.023612032942881025      625.4794250917569
0.023813692033404853      625.2299631033554
0.024015668469493705      624.9221700682976
0.024218120028423832      624.5560459865832
0.024420742013481003      624.1986862537208
0.02462288751935683       623.7935754251888
0.02482471476325633       623.3407135009874
0.02502638271145666       622.8401004811162
0.025228050706933344      622.2917363655755
0.025429878092549915      621.6956211543653
0.025632023834248962      621.0517548474857
0.025834646148682177      620.3601374449363
0.026037006051731277      619.6625717713256
0.026238891444565628      618.9294210244948
0.02644045986526205       618.1606852044441
0.026641869595683754      617.3563643111736
0.02684327929182417       616.516458344683
0.027044847609757647      615.6409673049726
0.02724673283158932       614.729891192042
0.027449092495796006      613.7832300058918
0.02765135518998453       612.8505713803064
0.027853143803698084      611.911150047761
0.028054615743803996      610.9649660082559
0.028255929159991804      610.012019261791
0.028457242575555555      609.0523098083662
0.028658714513790734      608.0858376479815
0.028860503124391312      607.112602780637
0.029062765814231884      606.1326052063326
0.029265100752448706      605.1579353824109
0.02946696141141544       604.2067568764412
0.029668505276199596      603.2790696884238
0.029869890575077548      602.3748738183583
0.03007127591008127       601.494169266245
0.030272819883157453      600.6369560320837
0.03047468072232762       599.8032341158745
0.030677015912237836      598.9930035176176
0.030879305594778746      598.2470625505192
0.03108112103494649       597.5368914153402
0.031282619677010744      596.8624901120805
0.03148395970843373       596.2238586407401
0.0316852996905265        595.6209970013191
0.031886798184716555      595.0539051938174
0.032088613378814135      594.522583218235
0.03229090271766436       594.0270310745719
0.03249314477533616       593.6838212637621
0.03269491316800606       593.3916367785088
0.03289636518952694       593.150477618812
0.03309765887540427       592.9603437846717
0.033298952634071295      592.821235276088
0.033500404873789524      592.733152093061
0.03370217362955133       592.6960942355904
0.03390441619436107       592.7100617036763
0.03410686840969767       592.8143044796174
0.03430884535332711       592.9697359235814
0.0345105048019665        593.1763560355686
0.034712005278138794      593.4341648155787
0.03491350567956333       593.7431622636119
0.03511516490413611       594.1033483796681
0.035317141474908095      594.5147231637474
0.03551959316946952       594.9772866158497
0.035722216260139425      595.5595225691685
0.03592436286389621       596.1808422478666
0.036126191200505704      596.8412456519441
0.03632786023882611       597.5407327814007
0.03652952932442421       598.2793036362367
0.036731357802754806      599.0569582164519
0.03693350464234149       599.8736965220464
0.03713612806239678       600.7295185530203
0.03733848789969145       601.6372505343663
0.037540373227224554      602.5643437639725
0.03774194158292153       603.510798241839
0.03794335124849304       604.4766139679657
0.03814476087977932       605.4617909423526
0.03834632913270157       606.4663291649998
0.03854821428921239       607.4902286359073
0.038750573887637245      608.5334893550751
0.03895283596123875       609.626568399736
0.039154623958694366      610.7080720852491
0.039356095285438375      611.7780004116144
0.03955740808971597       612.8363533788315
0.03975872089337115       613.8831309869008
0.03996019221824938       614.9183332358223
0.04016198021260023       615.9419601255958
0.04036424228186526       616.9540116562214
0.040566577948397485      617.9535832708951
0.040768439330593605      618.920956576101
0.04096998391520435       619.8561315718392
0.04117136993220262       620.7591082581096
0.04137275598532357       621.6298866349122
0.04157430067821714       622.4684667022469
0.04177616224060133       623.274848460114
0.0419784981588055        624.0490319085133
0.04218078754816035       624.803827199591
0.04238260269718259       625.5026715567122
0.04258410104946696       626.1455649798771
0.04278544079179545       626.7325074690856
0.04298678048479618       627.2634990243375
0.043188278689213704      627.7385396456332
0.043390093592177985      628.1576293329724
0.04359238263785921       628.5207680863551
0.043794623705544454      628.9163179591865
0.04399639111513442       629.2502068780381
0.04419784215819482       629.5224348429101
0.04439913486792596       629.7330018538025
0.044600427650446826      629.8819079107153
0.04480187891170468       629.9691530136485
0.045003646684386715      629.9947371626021
0.04520588825921017       629.9586603575759
