% Model:              brazing.mph
% Version:            COMSOL 5.3.0.223
% Date:               Oct 23 2018, 12:25
% Dimension:          1
% Nodes:              225
% Expressions:        1
% Description:        Line graph
% x                       Height
0                         625.2562267656381
2.02242572596226E-4       625.247130973193
4.040113375593453E-4      625.1755983341544
6.054635867748898E-4      625.0416288485226
8.067573541103817E-4      624.8452225162974
0.0010080510467017985     624.5863793374789
0.001209503071861434      624.2650993120672
0.0014112714639836859     623.8813824400621
0.001613513515825394      623.4352287214638
0.001815803045808458      623.0429430644764
0.0020176184164428694     622.6047277603682
0.0022191170764546647     622.120582809139
0.0024204572175778446     621.5905082107893
0.00262179740518867       621.0145039653187
0.002823296204553664      620.3925700727272
0.0030251118070788686     619.7247065330149
0.003227401660948015      619.0109133461818
0.0034297372965816655     618.3215706046254
0.003631598594156443      617.5953942698638
0.0038331430353414214     616.8323843418968
0.004034528845142556      616.0325408207245
0.004235914622467191      615.195863706347
0.004437458966299354      614.3223529987641
0.004639320101874085      613.4120086979759
0.004841655511239337      612.4648308039824
0.005043918276497792      611.6075413398439
0.005245706959792293      610.7376327297362
0.0054471789681153834     609.8551049736596
0.00564849245128538       608.9599580716138
0.005849805932728159      608.0521920235988
0.006051277935873691      607.1318068296147
0.00625306661055245       606.1988024896615
0.006455329363777148      605.2531790037391
0.0066576887471433525     604.3377143237759
0.0068595736811967985     603.4399987029836
0.007061141707903535      602.5600321413622
0.007262551112883539      601.6978146389115
0.007463960555734714      600.8533461956317
0.007665528695965537      600.0266268115228
0.00786741381892875       599.2176564865847
0.0080697734661485        598.4264352208174
0.008272395437950266      597.7180730873982
0.008474540847339949      597.0308159359893
0.008676367906616744      596.3646637665905
0.008878035577337231      595.7196165792019
0.009079703197965442      595.0956743738235
0.009281530107084053      594.4928371504551
0.00948367526660416       593.9111049090969
0.009686296889411194      593.350477649749
0.009888748367913874      592.9994870442259
0.010090724718905934      592.6848134223791
0.010292383720552634      592.4064567842082
0.010493883896490891      592.1644171297135
0.010695384145210549      591.9586944588948
0.010897043365029401      591.7892887717522
0.011099020079070253      591.6562000682858
0.011301472064648224      591.5594283484953
0.011503924099142101      591.5664488692616
0.011705900863193036      591.6110068133509
0.011907560133099505      591.6931021807629
0.012109060430962503      591.812734971498
0.012310560654077738      591.9699051855561
0.012512219699917606      592.1646128229369
0.012714196091111104      592.3968578836408
0.012916647604829811      592.6666403676676
0.013119269382981878      593.0889728245779
0.013321414683399362      593.5411682592359
0.013523241722808088      594.0232266716415
0.013724909467002238      594.5351480617949
0.013926577258472442      595.076932429696
0.014128404439597363      595.6485797753445
0.014330549975836581      596.2500900987409
0.01453317208336263       596.8814633998849
0.014735531766219815      597.5833368633489
0.014937416940401616      598.2966081410949
0.015138985143475461      599.0212772331231
0.015340394656791169      599.7573441394333
0.015541804135826716      600.5048088600255
0.015743372236141022      601.2636713948996
0.015945257239325793      602.0339317440558
0.01614761668334845       602.8155899074942
0.01634987940592303       603.7172331472058
0.016551668047823844      604.6055200874589
0.016753140015983766      605.4804507282535
0.0169544534601584        606.3420250695896
0.017155766903708087      607.1902431114672
0.017357238869994664      608.0251048538864
0.017559027508778132      608.8466102968471
0.01776129022699866       609.6547594403493
0.017963625484858744      610.4913786719819
0.018165486461237414      611.3037081771837
0.018367030641941378      612.0917479559549
0.018568416255992027      612.8554980082954
0.018769801906169285      613.5949583342051
0.018971346195167795      614.310128933684
0.019173207351754082      615.0010098067323
0.019375542861313405      615.6676009533498
0.019577832661189145      616.3596570628456
0.019779648217873542      616.9996436229185
0.019981146975907166      617.5875606335683
0.020182487123025287      618.1234080947952
0.020383827220813066      618.6071860065991
0.020585325830972126      619.0388943689802
0.020787141141585735      619.4185331819384
0.020989430597769934      619.7461024454736
0.021191672662378012      620.1887553142287
0.021393441061935803      620.5686596326137
0.02159489309031221       620.8858154006286
0.021796186783028852      621.1402226182736
0.021997480548535182      621.3318812855483
0.022198932795108938      621.4607914024532
0.022400701557758636      621.5269529689879
0.02260294412950465       621.5303659851526
0.02280539620920995       621.5852901280806
0.023007373018156245      621.5752714255963
0.02320903233274668       621.5003098776996
0.023410532675187733      621.3604054843905
0.023612032942881025      621.1555582456691
0.023813692033404853      620.8857681615353
0.024015668469493705      620.551035231989
0.024218120028423832      620.1513594570304
0.024420742013481003      619.7797863532539
0.02462288751935683       619.3550879444555
0.02482471476325633       618.877264230635
0.02502638271145666       618.3463152117924
0.025228050706933344      617.7622408879279
0.025429878092549915      617.1250412590413
0.025632023834248962      616.4347163251326
0.025834646148682177      615.6912660862018
0.026037006051731277      614.9483326037897
0.026238891444565628      614.1653076356564
0.02644045986526205       613.3421911818018
0.026641869595683754      612.478983242226
0.02684327929182417       611.5756838169291
0.027044847609757647      610.6322929059107
0.02724673283158932       609.6488105091713
0.027449092495796006      608.6252366267106
0.02765135518998453       607.6361144050687
0.027853143803698084      606.6377142839555
0.028054615743803996      605.6300362633709
0.028255929159991804      604.613080343315
0.028457242575555555      603.5868465237877
0.028658714513790734      602.5513348047892
0.028860503124391312      601.5065451863192
0.029062765814231884      600.452477668378
0.029265100752448706      599.4043739891823
0.02946696141141544       598.3808610408066
0.029668505276199596      597.381938823251
0.029869890575077548      596.4076073365155
0.03007127591008127       595.4578665806001
0.030272819883157453      594.5327165555047
0.03047468072232762       593.6321572612295
0.030677015912237836      592.7561886977744
0.030879305594778746      591.9587320684401
0.03108112103494649       591.1962355837662
0.031282619677010744      590.4686992437531
0.03148395970843373       589.7761230484003
0.0316852996905265        589.1185069977081
0.031886798184716555      588.4958510916765
0.032088613378814135      587.9081553303052
0.03229090271766436       587.3554197135948
0.03249314477533616       586.9935295389012
0.03269491316800606       586.6836382222983
0.03289636518952694       586.4257457637863
0.03309765887540427       586.2198521633647
0.033298952634071295      586.065957421034
0.033500404873789524      585.9640615367939
0.03370217362955133       585.9141645106447
0.03390441619436107       585.9162663425859
0.03410686840969767       586.0237603147528
0.03430884535332711       586.183650330171
0.0345105048019665        586.3959363888404
0.034712005278138794      586.6606184907611
0.03491350567956333       586.977696635933
0.03511516490413611       587.3471708243562
0.035317141474908095      587.7690410560305
0.03551959316946952       588.2433073309562
0.035722216260139425      588.8639879917449
0.03592436286389621       589.5246101188003
0.036126191200505704      590.225173712122
0.03632786023882611       590.9656787717103
0.03652952932442421       591.7461252975651
0.036731357802754806      592.5665132896864
0.03693350464234149       593.4268427480743
0.03713612806239678       594.3271136727286
0.03733848789969145       595.290737620686
0.037540373227224554      596.2734205708284
0.03774194158292153       597.2751625231558
0.03794335124849304       598.2959634776682
0.03814476087977932       599.3358234343657
0.03834632913270157       600.3947423932482
0.03854821428921239       601.4727203543157
0.038750573887637245      602.5697573175681
0.03895283596123875       603.7384589362721
0.039154623958694366      604.8931470057305
0.039356095285438375      606.0338215259435
0.03955740808971597       607.1604824969111
0.03975872089337115       608.2731299186332
0.03996019221824938       609.3717637911099
0.04016198021260023       610.4563841143411
0.04036424228186526       611.5269908883268
0.040566577948397485      612.5850081562222
0.040768439330593605      613.6085446048683
0.04096998391520435       614.597600234265
0.04117136993220262       615.5521750444125
0.04137275598532357       616.4722690353107
0.04157430067821714       617.3578822069595
0.04177616224060133       618.2090145593592
0.0419784981588055        619.0256660925094
0.04218078754816035       619.8317367184915
0.04238260269718259       620.5749786327017
0.04258410104946696       621.25539183514
0.04278544079179545       621.8729763258063
0.04298678048479618       622.4277321047008
0.043188278689213704      622.9196591718232
0.043390093592177985      623.3487575271738
0.04359238263785921       623.7150271707524
0.043794623705544454      624.1458695885291
0.04399639111513442       624.5086570153298
0.04419784215819482       624.8033894511545
0.04439913486792596       625.0300668960033
0.044600427650446826      625.188689349876
0.04480187891170468       625.2792568127727
0.045003646684386715      625.3017692846935
0.04520588825921017       625.2562267656381
