% Model:              brazing.mph
% Version:            COMSOL 5.3.0.223
% Date:               Oct 23 2018, 12:06
% Dimension:          1
% Nodes:              161
% Expressions:        1
% Description:        Line graph
% x                       Height
0                         633.3068087455306
1.9693985890610136E-4     633.2691725970345
3.9298030043864816E-4     633.2440648324904
5.884188308682271E-4      633.231485451898
7.835557095112735E-4      633.2314344552575
9.786925881542028E-4      633.2439118425689
0.0011741311185834375     633.2689176138321
0.0013701715601154056     633.3064517690472
0.0015671114190207022     633.3565143082141
0.0017642608961497635     633.1192438330319
0.0019605081241513326     632.8765996650815
0.0021561515411346144     632.6285818043629
0.002351492352702621      632.3751902508759
0.0025468331642698894     632.1164250046207
0.0027424765812509564     631.8522860655975
0.0029387238092488436     631.5827734338058
0.0031358732863727766     631.3078871092458
0.0033326885608882563     630.939190727623
0.0035286060983021257     630.5736428098472
0.0037239228519497995     630.2112433559188
0.003918938519653848      629.8519923658375
0.004113954187357973      629.4958898396036
0.004309270941005876      629.1429357772168
0.004505188478420127      628.7931301786773
0.004702003752936137      628.4464730439851
0.004899138702461749      628.097721644006
0.005095371599302965      627.7642226367722
0.005291000816927052      627.445976022284
0.005486327495291825      627.142981800541
0.005681654173656831      626.8552399715434
0.0058772833912816074     626.582750535291
0.0060735162881239745     626.3255134917842
0.006270651237651189      626.0835288410227
0.006467582778148322      625.9082614454596
0.006663615013526554      625.7660193253768
0.006859045413116663      625.6568024807741
0.0070541741987231454     625.5806109116517
0.007249302984329781      625.5374446180093
0.007444733383920351      625.5273035998473
0.007640765619299351      625.5501878571655
0.007837697159797551      625.6060973899639
0.008034634474091872      625.5986972132472
0.008230672405352359      625.6289892123398
0.008426108448549354      625.6969733872413
0.008621242851524007      625.8026497379522
0.008816377254498534      625.9460182644721
0.009011813297695145      626.127078966801
0.009207851228955002      626.3458318449392
0.00940478854324844       626.6022768988865
0.00960192671152544       626.9307316053378
0.00979816278359587       627.2727218555162
0.009993795147248338      627.628247649422
0.010189124956984269      627.9973089870549
0.010384454766719743      628.3799058684151
0.010580087130370853      628.7760382935027
0.010776323202439026      629.1857062623174
0.01097346137071288       629.6089097748594
0.011170281912174305      629.9955540800983
0.011366204645540166      630.3907042062426
0.011561526547508357      630.7943601532922
0.011756547339625332      631.2065219212474
0.011951568131742307      631.6271895101079
0.0121468900337105        632.0563629198737
0.012342812767076368      632.4940421505449
0.0125396333085378        632.9402272021216
0.012736771215691979      633.2395811270464
0.012933007030171178      633.5353496307647
0.013128639138602195      633.827532713276
0.013323968694306592      634.1161303745806
0.013519298250011432      634.4011426146784
0.013714930358443784      634.6825694335696
0.0139111661729252        634.960410831254
0.014108304080082462      635.2346668077316
0.014305241249097643      635.2277265047269
0.014501279037039759      635.2244206910817
0.014696714938233999      635.2247493667959
0.014891849199866372      635.2287125318696
0.015086983461498874      635.2363101863028
0.015282419362693495      635.2475423300954
0.01547845715063625       635.2624089632476
0.015675394319652317      635.2809100857592
0.015872325504405583      634.8888414583712
0.01606835738884011       634.5031669870218
0.016263787440706973      634.123886671711
0.016458915880206496      633.751000512439
0.016654044319705866      633.3845085092055
0.016849474371572262      633.0244106620105
0.017045506256006017      632.6707069708543
0.017242437440758204      632.3233974357366
0.01743957168037589       631.7458031005324
0.017635803876907424      631.1572835166997
0.01783143240066149       630.5578386842392
0.018026758388388308      629.9474686031505
0.01822208437611492       629.3261732734336
0.01841771289986836       628.6939526950886
0.018613945096398854      628.0508068681154
0.018811079336015085      627.396735792514
0.019007894687321662      626.7149407454282
0.01920381230049143       626.0340614078266
0.019399129129200405      625.3540977797092
0.01959414487161704       624.675049861076
0.01978916061403359       623.9969176519271
0.01998447744274231       623.3197011522626
0.020180395055911654      622.6434003620822
0.020377210407217645      621.9680152813861
0.020574360469106157      621.3695960861822
0.020770608273960874      620.7913867477198
0.020966252262493188      620.2333872659987
0.021161593642948652      619.6955976410188
0.021356935023404883      619.1780178727803
0.021552579011939476      618.6806479612834
0.021748826816797996      618.2034879065276
0.021945976878691802      617.7465377085132
0.022142917141692885      617.4061183754435
0.022338957981867254      617.1101209287858
0.022534396907280062      616.8585453685405
0.02272953417907009       616.6513916947074
0.02292467145086023       616.4886599072865
0.02312011037627338       616.3703500062779
0.02331615121644832       616.2964619916816
0.023513091479450195      616.2669958634974
0.023710025135207962      616.1937435885225
0.02390605945730262       616.1707875368095
0.024101491924457957      616.1981277083587
0.024296622768016963      616.2757641031699
0.024491753611575823      616.4036967212431
0.02468718607873073       616.5819255625786
0.024883220400824673      616.810450627176
0.025080154056581445      617.0892719150356
0.025277299572591536      617.4910466090463
0.025473542893039384      617.913476291193
0.02566918243840792       618.3565609614753
0.025864519396400307      618.8203006198936
0.026059856354392216      619.3046952664477
0.026255495899759323      619.8097449011376
0.026451739220204794      620.3354495239633
0.026648884736211575      620.881809134925
0.02684569473774919       621.4867320356741
0.027041607073256636      622.096342822929
0.027236918672681274      622.7106414966895
0.027431929210095855      623.3296280569558
0.027626939747510428      623.9533025037277
0.027822251346935042      624.5816648370054
0.028018163682442445      625.2147150567887
0.028214973683980002      625.8524531630777
0.028412120943583204      626.47077047636
0.028608365984047285      627.0760696562078
0.02880400723361381       627.6683507026208
0.02899934588786498       628.2476136155993
0.02919468454211669       628.8138583951431
0.029390325791684838      629.3670850412523
0.02958657083215161       629.9072935539268
0.029783718091758563      630.4344839331666
0.029980652759780888      630.7907582712963
0.030176688080480362      631.1478229704019
0.030372121537075924      631.5056780304835
0.03056725336547531       631.864323451541
0.030762385193874833      632.2237592335746
0.030957818650470807      632.583985376584
0.031153853971170976      632.9450018805693
0.031350788639194264      633.3068087455306
