% Model:              brazing.mph
% Version:            COMSOL 5.3.0.223
% Date:               Oct 23 2018, 13:01
% Dimension:          1
% Nodes:              161
% Expressions:        1
% Description:        Line graph
% x                       Height
0                         656.0870684594639
1.9693985890610136E-4     656.0710759291181
3.9298030043864816E-4     656.0629282893265
5.884188308682271E-4      656.062625540089
7.835557095112735E-4      656.0701676814055
9.786925881542028E-4      656.0855547132761
0.0011741311185834375     656.1087866357007
0.0013701715601154056     656.1398634486794
0.0015671114190207022     656.1787851522122
0.0017642608961497635     655.9382551495663
0.0019605081241513326     655.6950329749072
0.0021561515411346144     655.4491186282348
0.002351492352702621      655.2005121095492
0.0025468331642698894     654.9492134188504
0.0027424765812509564     654.6952225561382
0.0029387238092488436     654.4385395214128
0.0031358732863727766     654.1791643146743
0.0033326885608882563     653.8021863150673
0.0035286060983021257     653.4322173695516
0.0037239228519497995     653.0692574781269
0.003918938519653848      652.7133066407937
0.004113954187357973      652.3643648575518
0.004309270941005876      652.022432128401
0.004505188478420127      651.6875084533415
0.004702003752936137      651.3595938323733
0.004899138702461749      651.0031329524547
0.005095371599302965      650.6653805614068
0.005291000816927052      650.3463366592299
0.005486327495291825      650.0460012459235
0.005681654173656831      649.7643743214879
0.0058772833912816074     649.5014558859232
0.0060735162881239745     649.257245939229
0.006270651237651189      649.0317444814058
0.006467582778148322      648.8457895517347
0.006663615013526554      648.6937521981373
0.006859045413116663      648.5756324206136
0.0070541741987231454     648.4914302191635
0.007249302984329781      648.4411455937872
0.007444733383920351      648.4247785444844
0.007640765619299351      648.4423290712555
0.007837697159797551      648.4937971741002
0.008034634474091872      648.4960339121133
0.008230672405352359      648.5355393695272
0.008426108448549354      648.6123135463423
0.008621242851524007      648.7263564425583
0.008816377254498534      648.8776680581752
0.009011813297695145      649.0662483931932
0.009207851228955002      649.2920974476122
0.00940478854324844       649.555215221432
0.00960192671152544       649.8624965550899
0.00979816278359587       650.1870445896151
0.009993795147248338      650.5288593250079
0.010189124956984269      650.887940761268
0.010384454766719743      651.2642888983956
0.010580087130370853      651.6579037363905
0.010776323202439026      652.0687852752529
0.01097346137071288       652.4969335149827
0.011170281912174305      652.8688639450253
0.011366204645540166      653.2521327519665
0.011561526547508357      653.6467399358067
0.011756547339625332      654.0526854965458
0.011951568131742307      654.4699694341837
0.0121468900337105        654.8985917487204
0.012342812767076368      655.3385524401559
0.0125396333085378        655.7898515084903
0.012736771215691979      656.0731072605685
0.012933007030171178      656.3564037646998
0.013128639138602195      656.639741020884
0.013323968694306592      656.9231190291214
0.013519298250011432      657.2065377894118
0.013714930358443784      657.4899973017551
0.0139111661729252        657.7734975661516
0.014108304080082462      658.0570385826011
0.014305241249097643      658.0511439256601
0.014501279037039759      658.0466192049826
0.014696714938233999      658.0434644205681
0.014891849199866372      658.0416795724171
0.015086983461498874      658.0412646605295
0.015282419362693495      658.0422196849051
0.01547845715063625       658.0445446455442
0.015675394319652317      658.0482395424465
0.015872325504405583      657.6819578741336
0.01606835738884011       657.3180433482929
0.016263787440706973      656.9564959649241
0.016458915880206496      656.5973157240276
0.016654044319705866      656.2405026256031
0.016849474371572262      655.8860566696508
0.017045506256006017      655.5339778561705
0.017242437440758204      655.1842661851623
0.01743957168037589       654.6129181251811
0.017635803876907424      654.03314446198
0.01783143240066149       653.4449451955596
0.018026758388388308      652.8483203259195
0.01822208437611492       652.2432698530598
0.01841771289986836       651.6297937769808
0.018613945096398854      651.007892097682
0.018811079336015085      650.3775648151636
0.019007894687321662      649.6983941035487
0.01920381230049143       649.0234973424109
0.019399129129200405      648.3528745317502
0.01959414487161704       647.6865256715668
0.01978916061403359       647.0244507618604
0.01998447744274231       646.3666498026313
0.020180395055911654      645.7131227938792
0.020377210407217645      645.0638697356044
0.020574360469106157      644.4660535595922
0.020770608273960874      643.8914519300941
0.020966252262493188      643.3400648471098
0.021161593642948652      642.8118923106395
0.021356935023404883      642.3069343206831
0.021552579011939476      641.8251908772407
0.021748826816797996      641.3666619803122
0.021945976878691802      640.9313476298977
0.022142917141692885      640.5856182004738
0.022338957981867254      640.2846307717757
0.022534396907280062      640.0283853438032
0.02272953417907009       639.8168819165566
0.02292467145086023       639.6501204900356
0.02312011037627338       639.5281010642407
0.02331615121644832       639.4508236391714
0.023513091479450195      639.4182882148278
0.023710025135207962      639.3550205416649
0.02390605945730262       639.3410670373604
0.024101491924457957      639.3764277019142
0.024296622768016963      639.4611025353266
0.024491753611575823      639.5950915375975
0.02468718607873073       639.7783947087268
0.024883220400824673      640.0110120487144
0.025080154056581445      640.2929435575605
0.025277299572591536      640.6712049008745
0.025473542893039384      641.0732329990138
0.02566918243840792       641.4990278519783
0.025864519396400307      641.9485894597682
0.026059856354392216      642.4219178223833
0.026255495899759323      642.9190129398235
0.026451739220204794      643.4398748120891
0.026648884736211575      643.9845034391799
0.02684569473774919       644.567759186833
0.027041607073256636      645.1582524151481
0.027236918672681274      645.7559831241248
0.027431929210095855      646.3609513137633
0.027626939747510428      646.9731569840636
0.027822251346935042      647.5926001350258
0.028018163682442445      648.2192807666497
0.028214973683980002      648.8531988789354
0.028412120943583204      649.4470098883014
0.028608365984047285      650.0314675819652
0.02880400723361381       650.6065719599266
0.02899934588786498       651.1723230221857
0.02919468454211669       651.7287207687423
0.029390325791684838      652.2757651995968
0.02958657083215161       652.8134563147488
0.029783718091758563      653.3417941141986
0.029980652759780888      653.6917653842512
0.030176688080480362      654.0397903751913
0.030372121537075924      654.3858690870185
0.03056725336547531       654.730001519733
0.030762385193874833      655.0721876733348
0.030957818650470807      655.412427547824
0.031153853971170976      655.7507211432003
0.031350788639194264      656.0870684594639
