% Model:              brazing.mph
% Version:            COMSOL 5.3.0.223
% Date:               Oct 23 2018, 13:16
% Dimension:          1
% Nodes:              225
% Expressions:        1
% Description:        Line graph
% x                       Height
0                         661.3938769517775
2.1191841480136804E-4     661.3003914616369
4.2353438892247565E-4     661.1663328816044
6.349689892252786E-4      660.9917012116804
8.463435942227858E-4      660.7764964518648
0.001057779685752053      660.5207186021578
0.001269398639759412      660.224367662559
0.001481321517995422      659.8874436330686
0.0017252358262731596     659.4383042593015
0.0019686866163640313     658.9573434507557
0.0022118589563155885     658.4445612074309
0.002454938550168189      657.8999575293271
0.0026981113144448556     657.3235324164449
0.0029415629522145732     656.7152858687836
0.0031854785295931678     656.0752178863435
0.0034450106912723537     655.2833579733468
0.0037039863009040125     654.4592286826908
0.003962627412610827      653.6028300143754
0.0042211569424298        652.7141619684008
0.004479798094906585      651.793224544767
0.004738773785972872      650.8400177434736
0.004998306069542035      649.854541564521
0.005274868491808245      648.6961403277562
0.005550758931995686      647.520363832756
0.0058262454501036105     646.3272120795195
0.006101597285810183      645.1166850680478
0.006377084073678616      643.8887827983406
0.006652975052596927      642.6435052703973
0.006929538280995558      641.3808524842186
0.007206101510950518      640.0689855783907
0.007481992491406557      638.7758611874734
0.007757479280801014      637.5014793114665
0.00803283111802884       636.24583995037
0.008308317637660222      635.0089431041846
0.008584208079380276      633.7907887729093
0.008860770503195153      632.5913769565448
0.009120302815147717      631.4641459430335
0.00937927853441616       630.380389433218
0.009637919714987194      629.3401074270984
0.009896449272866283      628.3432999246749
0.010155090412673047      627.3899669259473
0.010414066050518256      626.4801084309155
0.01067359824059789       625.6137244395798
0.010917512776055054      624.8245906550349
0.011160965100129169      624.0891669214717
0.011404139717480647      623.4074532388903
0.01164722176512739       622.7794496072906
0.011890396591516505      622.2051560266731
0.012133849333188814      621.6845724970369
0.012377764493855997      621.2176990183829
0.01258968694000722       620.8568488214845
0.012801305803204788      620.5387090166331
0.013012742322906452      620.2632796038282
0.013224118052332232      620.0305605830704
0.01343555464954572       619.8405519543596
0.013647173667633327      619.6932537176954
0.013859096345786744      619.5886658730781
0.014071014760598048      619.5442812094792
0.014282630734729056      619.5418267907548
0.01449406533504172       619.581302616905
0.014705439940049088      619.6627086879294
0.014916876031588231      619.7860450038287
0.015128494985605482      619.951311564602
0.015340417863851432      620.15850837025
0.01558433217214941       620.4171895339184
0.015827782962260412      620.737112376426
0.016070955302232025      621.1182768977728
0.016314034896104664      621.5606830979585
0.0165572076604014        622.0643309769838
0.01680065929819124       622.629220534848
0.01704457487559009       623.2553517715513
0.01730410703726679       623.9388327678523
0.017563082646895985      624.6647644026641
0.01782172375860034       625.4331466759866
0.018080253288416847      626.2439795878198
0.01833889444089119       627.0972631381641
0.018597870131955005      627.9929973270187
0.018857402415521692      628.9311821543843
0.019133964837753384      629.9358678432559
0.019409855277906563      630.9603783447227
0.019685341795980367      632.0047136587848
0.019960693631652874      633.0688737854423
0.0202361804194872        634.1528587246953
0.020512071398371242      635.2566684765433
0.020788634626735362      636.3803030409867
0.02106519785666259       637.4740512184422
0.021341088837091095      638.5561104172295
0.021616575626458134      639.6264806373483
0.02189192746365859       640.6851618787987
0.022167413983262562      641.732154141581
0.02244330442495508       642.7674574256945
0.022719866848742224      643.7910717311399
0.022979399160698737      644.6442159405926
0.023238374879971102      645.4755177331089
0.023497016060546046      646.2849771086887
0.023755545618429033      647.0725940673324
0.02401418675823971       647.8383686090399
0.024273162396088833      648.5823007338108
0.024532694586172417      649.3043904416455
0.02477660912165014       649.8985271600094
0.02502006144574469       650.4583698535025
0.025263236063116538      650.9839185221252
0.025506318110783622      651.4751731658772
0.025749492937193107      651.9321337847588
0.02599294567888585       652.3548003787693
0.026236860839573585      652.7431729479094
0.026448783285734738      653.022329691425
0.02666040214894219       653.2836455898592
0.026871838668653707      653.5271206432118
0.027083214398089334      653.7527548514828
0.027294650995312687      653.9605482146725
0.027506270013410168      654.1505007327804
0.02771819269157351       654.322612405807
0.02793011110637494       654.3970361038631
0.028141727080496122      654.4522545989339
0.028353161680798985      654.4882678910194
0.028564536285796558      654.5050759801198
0.028775972377325904      654.5026788662351
0.028987591331333325      654.4810765493648
0.029199514209569403      654.4402690295096
0.02944342851784522       654.2572200321248
0.02968687930793418       654.0297123587084
0.02993005164788383       653.7577460092605
0.030173131241734534      653.4413209837811
0.0304163040060093        653.0804372822703
0.0306597556437771        652.6750949047278
0.030903671221153783      652.2252938511539
0.031163203382828072      651.5786760516473
0.03142217899245488       650.8855931280564
0.03168082010415685       650.1460450803805
0.03193934963397098       649.3600319086203
0.032197990786442934      648.5275536127756
0.03245696647750436       647.6486101928459
0.032716498761068635      646.7232016488318
0.03299306118333142       645.5513839229455
0.03326895162351545       644.3582051659182
0.03354443814161999       643.1436653777495
0.03381978997732317       641.9077645584397
0.034095276765188226      640.6505027079892
0.03437116774410313       639.3718798263972
0.03464773097249833       638.0718959136642
0.034924294202460265      636.6925751408439
0.03520018518292322       635.3350201207826
0.03547567197232456       633.9992308534801
0.035751023809559274      632.6852073389365
0.036026510329197556      631.3929495771521
0.036302400770924524      630.1224575681263
0.03657896319474637       628.8737313118596
0.036838495506703706      627.6974897812798
0.03709747122597688       626.5764563797951
0.037356112406552636      625.5106311074052
0.03761464196443644       624.5000139641102
0.03787328310424792       623.5446049499104
0.03813225874209787       622.6444040648053
0.03839179093218227       621.7994113087952
0.03863570546763781       621.0342242079033
0.038879157791710306      620.3358524161448
0.03912233240906017       619.7042959335197
0.03936541445670531       619.1395547600279
0.039608589283092806      618.6416288956697
0.039852042024763494      618.2105183404445
0.04009595718542905       617.846223094353
0.040307879631580334      617.5668395712793
0.04051949849477797       617.3407051960648
0.0407309350144797        617.1678199687099
0.040942310743905544      617.0481838892142
0.04115374734111909       616.9817969575781
0.04136536635920676       616.9686591738013
0.04157728903736024       617.0087705378838
0.04178920745215007       617.1089804490925
0.042000823426259694      617.2608861008636
0.042212258026551035      617.4644874931964
0.04242363263153709       617.7197846260914
0.0426350687230549        618.0267774995485
0.042846687677050764      618.3854661135675
0.04305861055527523       618.7958504681487
0.04330252486354604       619.2967221756629
0.043545975653630026      619.8678567994701
0.04378914799357473       620.5092543395705
0.044032227587420474      621.220914795964
0.04427540035169028       622.0028381686509
0.04451885198945311       622.8550244576306
0.044762767566824783      623.7774736629037
0.045022299728516735      624.7900991817886
0.04528127533816108       625.851393654727
0.045539916449880535      626.9613570817188
0.045798445979712124      628.119989462764
0.046057087132201545      629.327290797863
0.04631606282328052       630.5832610870151
0.046575595106862454      631.8879003302209
0.04685215752913061       633.2760882059604
0.04712804796931999       634.6889710015888
0.04740353448742985       636.1265487171062
0.04767888632313835       637.5888213525124
0.04795437311100872       639.0757889078079
0.048230264089928976      640.5874513829918
0.048506827318329566      642.1238087780649
0.04878339054829114       643.5796322657962
0.049059281528753745      645.0147762173176
0.04933476831815475       646.4292406326286
0.0496101201553891        647.8230255117298
0.04988560667502701       649.1961308546213
0.05016149711675364       650.5485566613022
0.050438059540575134      651.8803029317734
0.05069759185254397       652.9484983269258
0.05095656757182859       653.9688533568443
0.05121520875241573       654.9413680215285
0.05147373831031092       655.866042320979
0.051732379450133786      656.7428762551956
0.05199135508799517       657.5718698241781
0.05225088727809108       658.3530230279266
0.0524948018135407        658.9610029377443
0.052738254137607306      659.5078915162023
0.05298142875495131       659.9936887633008
0.05322451080259058       660.4183946790397
0.0534676856289722        660.7820092634194
0.05371113837063701       661.0845325164391
0.05395505353129665       661.3259644380995
0.05416697597743634       661.4648482951884
0.054378594840622414      661.5606714624703
0.05459003136031263       661.6134339399454
0.05480140708972696       661.6231357276137
0.05501284368692898       661.5897768254752
0.0552244627050051        661.5133572335297
0.05543638538314697       661.3938769517775
