% Model:              brazing.mph
% Version:            COMSOL 5.3.0.223
% Date:               Oct 23 2018, 12:35
% Dimension:          1
% Nodes:              225
% Expressions:        1
% Description:        Line graph
% x                       Height
0                         690.9472119833051
2.02242572596226E-4       690.9354516954745
4.040113375593453E-4      690.8643651010658
6.054635867748898E-4      690.733952200079
8.067573541103817E-4      690.5442129925141
0.0010080510467017985     690.2951474783712
0.001209503071861434      689.9867556576498
0.0014112714639836859     689.6190375303507
0.001613513515825394      689.1919930964733
0.001815803045808458      688.801231605641
0.0020176184164428694     688.366681487348
0.0022191170764546647     687.8883427415944
0.0024204572175778446     687.3662153683804
0.00262179740518867       686.8002993677056
0.002823296204553664      686.1905947395702
0.0030251118070788686     685.5371014839742
0.003227401660948015      684.8398196009176
0.0034297372965816655     684.1606114101112
0.003631598594156443      683.4470430155765
0.0038331430353414214     682.6991144173134
0.004034528845142556      681.916825615322
0.004235914622467191      681.1001766096022
0.004437458966299354      680.2491674001541
0.004639320101874085      679.3637979869779
0.004841655511239337      678.4440683700732
0.005043918276497792      677.5943308854361
0.005245706959792293      676.7339393030649
0.0054471789681153834     675.8628936229597
0.00564849245128538       674.9811938451205
0.005849805932728159      674.0888399695472
0.006051277935873691      673.18583199624
0.00625306661055245       672.2721699251987
0.006455329363777148      671.3478537564233
0.0066576887471433525     670.4515101556719
0.0068595736811967985     669.5730118010874
0.007061141707903535      668.71235869267
0.007262551112883539      667.8695508304197
0.007463960555734714      667.0445882143364
0.007665528695965537      666.2374708444199
0.00786741381892875       665.4481987206706
0.0080697734661485        664.6767718430883
0.008272395437950266      663.9785338333317
0.008474540847339949      663.3034955256121
0.008676367906616744      662.6516569199299
0.008878035577337231      662.0230180162849
0.009079703197965442      661.4175788146772
0.009281530107084053      660.8353393151067
0.00948367526660416       660.2762995175735
0.009686296889411194      659.7404594220775
0.009888748367913874      659.3889570045666
0.010090724718905934      659.0749688380427
0.010292383720552634      658.7984949225056
0.010493883896490891      658.5595352579556
0.010695384145210549      658.3580898443926
0.010897043365029401      658.1941586818166
0.011099020079070253      658.0677417702274
0.011301472064648224      657.9788391096254
0.011503924099142101      657.9845636465758
0.011705900863193036      658.0287820699322
0.011907560133099505      658.1114943796942
0.012109060430962503      658.2327005758622
0.012310560654077738      658.3924006584359
0.012512219699917606      658.5905946274156
0.012714196091111104      658.8272824828007
0.012916647604829811      659.1024642245919
0.013119269382981878      659.5139122195201
0.013321414683399362      659.9559645482369
0.013523241722808088      660.4286212107423
0.013724909467002238      660.9318822070366
0.013926577258472442      661.4657475371193
0.014128404439597363      662.0302172009907
0.014330549975836581      662.6252911986509
0.01453317208336263       663.2509695300996
0.014735531766219815      663.9402067505747
0.014937416940401616      664.6422795232436
0.015138985143475461      665.3571878481063
0.015340394656791169      666.0849317251626
0.015541804135826716      666.8255111544128
0.015743372236141022      667.5789261358565
0.015945257239325793      668.3451766694942
0.01614761668334845       669.1242627553254
0.01634987940592303       670.0043114933719
0.016551668047823844      670.8727808832964
0.016753140015983766      671.729670925099
0.0169544534601584        672.5749816187794
0.017155766903708087      673.4087129643377
0.017357238869994664      674.2308649617743
0.017559027508778132      675.0414376110886
0.01776129022699866       675.8404309122808
0.017963625484858744      676.6650387218623
0.018165486461237414      677.4661024024641
0.018367030641941378      678.2436219540866
0.018568416255992027      678.9975973767295
0.018769801906169285      679.7280286703929
0.018971346195167795      680.4349158350766
0.019173207351754082      681.1182588707809
0.019375542861313405      681.7780577775055
0.019577832661189145      682.4530622485187
0.019779648217873542      683.0796440165301
0.019981146975907166      683.6578030815399
0.020182487123025287      684.1875394435478
0.020383827220813066      684.6688531025543
0.020585325830972126      685.1017440585588
0.020787141141585735      685.4862123115615
0.020989430597769934      685.8222578615627
0.021191672662378012      686.2437337234277
0.021393441061935803      686.605674247167
0.02159489309031221       686.9080794327808
0.021796186783028852      687.1509492802688
0.021997480548535182      687.3342837896312
0.022198932795108938      687.4580829608678
0.022400701557758636      687.5223467939791
0.02260294412950465       687.5270752889644
0.02280539620920995       687.5725646566027
0.023007373018156245      687.556256842494
0.02320903233274668       687.4781518466385
0.023410532675187733      687.3382496690361
0.023612032942881025      687.1365503096869
0.023813692033404853      686.8730537685907
0.024015668469493705      686.5477600457474
0.024218120028423832      686.1606691411574
0.024420742013481003      685.7852052439619
0.02462288751935683       685.358933686439
0.02482471476325633       684.8818544685888
0.02502638271145666       684.3539675904115
0.025228050706933344      683.7752730519068
0.025429878092549915      683.1457708530749
0.025632023834248962      682.4654609939158
0.025834646148682177      681.7343434744295
0.026037006051731277      680.9980666447134
0.026238891444565628      680.2239233287348
0.02644045986526205       679.4119135264938
0.026641869595683754      678.5620372379901
0.02684327929182417       677.6742944632241
0.027044847609757647      676.7486852021955
0.02724673283158932       675.7852094549045
0.027449092495796006      674.7838672213509
0.02765135518998453       673.8021217234631
0.027853143803698084      672.8125486062872
0.028054615743803996      671.8151478698236
0.028255929159991804      670.8099195140718
0.028457242575555555      669.796863539032
0.028658714513790734      668.7759799447043
0.028860503124391312      667.7472687310886
0.029062765814231884      666.7107298981851
0.029265100752448706      665.6803547471571
0.02946696141141544       664.6743434231548
0.029668505276199596      663.6926959261782
0.029869890575077548      662.7354122562274
0.03007127591008127       661.8024924133023
0.030272819883157453      660.893936397403
0.03047468072232762       660.0097442085294
0.030677015912237836      659.1499158466814
0.030879305594778746      658.3600309620255
0.03108112103494649       657.606417007146
0.031282619677010744      656.8890739820434
0.03148395970843373       656.2080018867175
0.0316852996905265        655.5632007211683
0.031886798184716555      654.9546704853957
0.032088613378814135      654.3824111793999
0.03229090271766436       653.8464228031808
0.03249314477533616       653.4799048550364
0.03269491316800606       653.1658944432324
0.03289636518952694       652.904391567769
0.03309765887540427       652.695396228646
0.033298952634071295      652.5389084258634
0.033500404873789524      652.4349281594212
0.03370217362955133       652.3834554293195
0.03390441619436107       652.3844902355582
0.03410686840969767       652.4827349419371
0.03430884535332711       652.6337382644838
0.0345105048019665        652.837500203198
0.034712005278138794      653.0940207580801
0.03491350567956333       653.4032999291298
0.03511516490413611       653.7653377163474
0.035317141474908095      654.1801341197325
0.03551959316946952       654.6476891392855
0.035722216260139425      655.247657642729
0.03592436286389621       655.8880146425432
0.036126191200505704      656.5687601387284
0.03632786023882611       657.2898941312843
0.03652952932442421       658.0514166202111
0.036731357802754806      658.8533276055086
0.03693350464234149       659.6956270871771
0.03713612806239678       660.5783150652162
0.03733848789969145       661.5182349994809
0.037540373227224554      662.4780742455642
0.03774194158292153       663.4578328034663
0.03794335124849304       664.4575106731871
0.03814476087977932       665.4771078547267
0.03834632913270157       666.516624348085
0.03854821428921239       667.576060153262
0.038750573887637245      668.6554152702578
0.03895283596123875       669.7934488683543
0.039154623958694366      670.9191095061676
0.039356095285438375      672.0323971836975
0.03955740808971597       673.1333119009441
0.03975872089337115       674.2218536579074
0.03996019221824938       675.2980224545875
0.04016198021260023       676.3618182909839
0.04036424228186526       677.4132411670973
0.040566577948397485      678.4523015859701
0.040768439330593605      679.4580351297
0.04096998391520435       680.430441798287
0.04117136993220262       681.3695215917313
0.04137275598532357       682.2752745100327
0.04157430067821714       683.1477005531914
0.04177616224060133       683.986799721207
0.0419784981588055        684.79257201408
0.04218078754816035       685.5795450782397
0.04238260269718259       686.3077491959963
0.04258410104946696       686.9771843673499
0.04278544079179545       687.5878505923006
0.04298678048479618       688.1397478708482
0.043188278689213704      688.6328762029927
0.043390093592177985      689.0672355887341
0.04359238263785921       689.4428260280727
0.043794623705544454      689.8571878013772
0.04399639111513442       690.2068885664244
0.04419784215819482       690.4919283232144
0.04439913486792596       690.7123070717471
0.044600427650446826      690.8680248120226
0.04480187891170468       690.9590815440407
0.045003646684386715      690.9854772678015
0.04520588825921017       690.9472119833051
