% Model:              brazing.mph
% Version:            COMSOL 5.3.0.223
% Date:               Oct 23 2018, 13:29
% Dimension:          1
% Nodes:              225
% Expressions:        1
% Description:        Line graph
% x                       Height
0                         672.1718408845534
2.02242572596226E-4       672.166725856808
4.040113375593453E-4      672.0996835155013
6.054635867748898E-4      671.9707138606336
8.067573541103817E-4      671.779816892205
0.0010080510467017985     671.5269926102151
0.001209503071861434      671.2122410146643
0.0014112714639836859     670.8355621055523
0.001613513515825394      670.3969558828792
0.001815803045808458      670.0095634604353
0.0020176184164428694     669.5765456219164
0.0022191170764546647     669.0979023673227
0.0024204572175778446     668.5736336966539
0.00262179740518867       668.0037396099102
0.002823296204553664      667.3882201070918
0.0030251118070788686     666.727075188198
0.003227401660948015      666.0203048532296
0.0034297372965816655     665.3344326889983
0.003631598594156443      664.6122323473156
0.0038331430353414214     663.8537038281818
0.004034528845142556      663.0588471315967
0.004235914622467191      662.2276622575605
0.004437458966299354      661.360149206073
0.004639320101874085      660.4563079771343
0.004841655511239337      659.5161385707443
0.005043918276497792      658.6627387492698
0.005245706959792293      657.7971354166717
0.0054471789681153834     656.9193285729501
0.00564849245128538       656.029318218105
0.005849805932728159      655.1271043521363
0.006051277935873691      654.2126869750443
0.00625306661055245       653.2860660868284
0.006455329363777148      652.3472416874893
0.0066576887471433525     651.4373124777616
0.0068595736811967985     650.5453284638515
0.007061141707903535      649.6712896457593
0.007262551112883539      648.8151960234846
0.007463960555734714      647.9770475970278
0.007665528695965537      647.1568443663887
0.00786741381892875       646.3545863315671
0.0080697734661485        645.5702734925633
0.008272395437950266      644.8664880736209
0.008474540847339949      644.1843179438545
0.008676367906616744      643.5237631032644
0.008878035577337231      642.8848235518503
0.009079703197965442      642.2674992896125
0.009281530107084053      641.6717903165508
0.00948367526660416       641.097696632665
0.009686296889411194      640.5452182379555
0.009888748367913874      640.198286597229
0.010090724718905934      639.887958109047
0.010292383720552634      639.6142327734095
0.010493883896490891      639.3771105903166
0.010695384145210549      639.1765915597683
0.010897043365029401      639.0126756817648
0.011099020079070253      638.8853629563054
0.011301472064648224      638.7946533833909
0.011503924099142101      638.8056204203502
0.011705900863193036      638.8543332096742
0.011907560133099505      638.9407917513628
0.012109060430962503      639.064996045416
0.012310560654077738      639.226946091834
0.012512219699917606      639.4266418906165
0.012714196091111104      639.6640834417636
0.012916647604829811      639.9392707452754
0.013119269382981878      640.3646426029184
0.013321414683399362      640.8200304888422
0.013523241722808088      641.3054344030469
0.013724909467002238      641.8208543455324
0.013926577258472442      642.3662903162988
0.014128404439597363      642.9417423153462
0.014330549975836581      643.5472103426741
0.01453317208336263       644.1826943982832
0.014735531766219815      644.8867630859113
0.014937416940401616      645.602408802123
0.015138985143475461      646.3296315469182
0.015340394656791169      647.0684313202971
0.015541804135826716      647.8188081222595
0.015743372236141022      648.5807619528056
0.015945257239325793      649.3542928119351
0.01614761668334845       650.1394006996481
0.01634987940592303       651.0418161592661
0.016551668047823844      651.9311583013872
0.016753140015983766      652.8074271260116
0.0169544534601584        653.6706226331391
0.017155766903708087      654.52074482277
0.017357238869994664      655.357793694904
0.017559027508778132      656.1817692495414
0.01776129022699866       656.992671486682
0.017963625484858744      657.8295657341769
0.018165486461237414      658.6422599476707
0.018367030641941378      659.4307541271636
0.018568416255992027      660.1950482726554
0.018769801906169285      660.9351423841463
0.018971346195167795      661.6510364616361
0.019173207351754082      662.3427305051248
0.019375542861313405      663.0102245146126
0.019577832661189145      663.6980931192167
0.019779648217873542      664.3344409860645
0.019981146975907166      664.919268115156
0.020182487123025287      665.4525745064915
0.020383827220813066      665.9343601600708
0.020585325830972126      666.3646250758939
0.020787141141585735      666.7433692539607
0.020989430597769934      667.0705926942712
0.021191672662378012      667.5054814118222
0.021393441061935803      667.8780339425236
0.02159489309031221       668.1882502863756
0.021796186783028852      668.4361304433781
0.021997480548535182      668.6216744135313
0.022198932795108938      668.7448821968347
0.022400701557758636      668.8057537932889
0.02260294412950465       668.8042892028934
0.02280539620920995       668.8488877137985
0.023007373018156245      668.8289235206574
0.02320903233274668       668.7443966234705
0.023410532675187733      668.5953070222374
0.023612032942881025      668.3816547169582
0.023813692033404853      668.1034397076331
0.024015668469493705      667.760661994262
0.024218120028423832      667.3533215768448
0.024420742013481003      666.9723724856091
0.02462288751935683       666.53859982234
0.02482471476325633       666.0520035870376
0.02502638271145666       665.5125837797018
0.025228050706933344      664.9203404003326
0.025429878092549915      664.2752734489302
0.025632023834248962      663.5773829254942
0.025834646148682177      662.826668830025
0.026037006051731277      662.0736266793955
0.026238891444565628      661.2808771551328
0.02644045986526205       660.4484202572368
0.026641869595683754      659.5762559857075
0.02684327929182417       658.664384340545
0.027044847609757647      657.7128053217493
0.02724673283158932       656.7215189293205
0.027449092495796006      655.6905251632584
0.02765135518998453       654.6919853416067
0.027853143803698084      653.6845131123164
0.028054615743803996      652.6681084753876
0.028255929159991804      651.6427714308202
0.028457242575555555      650.6085019786142
0.028658714513790734      649.5653001187698
0.028860503124391312      648.5131658512867
0.029062765814231884      647.452099176165
0.029265100752448706      646.3966129180045
0.02946696141141544       645.3659318601442
0.029668505276199596      644.3600560025842
0.029869890575077548      643.3789853453242
0.03007127591008127       642.4227198883643
0.030272819883157453      641.4912596317048
0.03047468072232762       640.5846045753453
0.030677015912237836      639.7027547192861
0.030879305594778746      638.8976601268461
0.03108112103494649       638.1279985470669
0.031282619677010744      637.3937699799485
0.03148395970843373       636.6949744254908
0.0316852996905265        636.0316118836939
0.031886798184716555      635.4036823545579
0.032088613378814135      634.8111858380826
0.03229090271766436       634.254122334268
0.03249314477533616       633.8856073567472
0.03269491316800606       633.5694363485587
0.03289636518952694       633.3056093097028
0.03309765887540427       633.0941262401793
0.033298952634071295      632.9349871399883
0.033500404873789524      632.8281920091298
0.03370217362955133       632.7737408476037
0.03390441619436107       632.7716336554101
0.03410686840969767       632.8736705941566
0.03430884535332711       633.0284201682113
0.0345105048019665        633.2358823775744
0.034712005278138794      633.4960572222459
0.03491350567956333       633.8089447022257
0.03511516490413611       634.1745448175138
0.035317141474908095      634.5928575681104
0.03551959316946952       635.0638829540153
0.035722216260139425      635.6801243754753
0.03592436286389621       636.3366737563352
0.036126191200505704      637.0335310965949
0.03632786023882611       637.7706963962543
0.03652952932442421       638.5481696553135
0.036731357802754806      639.3659508737726
0.03693350464234149       640.2240400516313
0.03713612806239678       641.12243718889
0.03733848789969145       642.083310467475
0.037540373227224554      643.0636247191441
0.03774194158292153       644.0633799438972
0.03794335124849304       645.0825761417341
0.03814476087977932       646.1212133126551
0.03834632913270157       647.1792914566599
0.03854821428921239       648.2568105737487
0.038750573887637245      649.3537706639214
0.03895283596123875       650.5211512230977
0.039154623958694366      651.6750997114816
0.039356095285438375      652.8156161290727
0.03955740808971597       653.9427004758712
0.03975872089337115       655.0563527518772
0.03996019221824938       656.1565729570904
0.04016198021260023       657.243361091511
0.04036424228186526       658.316717155139
0.040566577948397485      659.3768071789646
0.040768439330593605      660.4029062023379
0.04096998391520435       661.395014225259
0.04117136993220262       662.3531312477282
0.04137275598532357       663.2772572697453
0.04157430067821714       664.16739229131
0.04177616224060133       665.0235363124228
0.0419784981588055        665.8456893330833
0.04218078754816035       666.6541248115562
0.04238260269718259       667.4006399783394
0.04258410104946696       668.085234833433
0.04278544079179545       668.707909376837
0.04298678048479618       669.2686636085514
0.043188278689213704      669.7674975285762
0.043390093592177985      670.2044111369114
0.04359238263785921       670.579404433557
0.043794623705544454      671.0145985101467
0.04399639111513442       671.3823241523893
0.04419784215819482       671.6825813602846
0.04439913486792596       671.9153701338328
0.044600427650446826      672.0806904730339
0.04480187891170468       672.1785423778874
0.045003646684386715      672.2089258483941
0.04520588825921017       672.1718408845534
