% Model:              brazing.mph
% Version:            COMSOL 5.3.0.223
% Date:               Oct 23 2018, 12:35
% Dimension:          1
% Nodes:              225
% Expressions:        1
% Description:        Line graph
% x                       Height
0                         674.3356074257656
2.02242572596226E-4       674.3267509566671
4.040113375593453E-4      674.2592895873537
6.054635867748898E-4      674.1332233178257
8.067573541103817E-4      673.9485521480827
0.0010080510467017985     673.705276078125
0.001209503071861434      673.4033951079526
0.0014112714639836859     673.0429092375655
0.001613513515825394      672.6238184669637
0.001815803045808458      672.236878930555
0.0020176184164428694     671.8067038114997
0.0022191170764546647     671.3332931097976
0.0024204572175778446     670.8166468254489
0.00262179740518867       670.2567649584535
0.002823296204553664      669.6536475088113
0.0030251118070788686     669.0072944765225
0.003227401660948015      668.3177058615868
0.0034297372965816655     667.6431408710414
0.003631598594156443      666.9350431156522
0.0038331430353414214     666.1934125954194
0.004034528845142556      665.4182493103428
0.004235914622467191      664.6095532604227
0.004437458966299354      663.7673244456586
0.004639320101874085      662.8915628660509
0.004841655511239337      661.9822685215994
0.005043918276497792      661.1359118020671
0.005245706959792293      660.2795884344417
0.0054471789681153834     659.4132984187235
0.00564849245128538       658.5370417549123
0.005849805932728159      657.6508184430081
0.006051277935873691      656.7546284830112
0.00625306661055245       655.8484718749212
0.006455329363777148      654.9323486187382
0.0066576887471433525     654.0432527254726
0.0068595736811967985     653.171884113167
0.007061141707903535      652.3182427818214
0.007262551112883539      651.4823287314358
0.007463960555734714      650.6641419620101
0.007665528695965537      649.8636824735444
0.00786741381892875       649.0809502660388
0.0080697734661485        648.3159453394929
0.008272395437950266      647.6204521866694
0.008474540847339949      646.9488991268421
0.008676367906616744      646.3012861600108
0.008878035577337231      645.6776132861758
0.009079703197965442      645.0778805053369
0.009281530107084053      644.5020878174943
0.00948367526660416       643.9502352226478
0.009686296889411194      643.4223227207975
0.009888748367913874      643.0687652732715
0.010090724718905934      642.7530715358276
0.010292383720552634      642.4752415084658
0.010493883896490891      642.235275191186
0.010695384145210549      642.0331725839883
0.010897043365029401      641.8689336868727
0.011099020079070253      641.742558499839
0.011301472064648224      641.6540470228875
0.011503924099142101      641.6565442433223
0.011705900863193036      641.6978450528696
0.011907560133099505      641.7779494515294
0.012109060430962503      641.8968574393017
0.012310560654077738      642.0545690161865
0.012512219699917606      642.251084182184
0.012714196091111104      642.486402937294
0.012916647604829811      642.7605252815165
0.013119269382981878      643.1645180234985
0.013321414683399362      643.5993907497357
0.013523241722808088      644.0651434602279
0.013724909467002238      644.5617761549753
0.013926577258472442      645.0892888339777
0.014128404439597363      645.6476814972355
0.014330549975836581      646.2369541447481
0.01453317208336263       646.8571067765159
0.014735531766219815      647.5376260682084
0.014937416940401616      648.2315913374107
0.015138985143475461      648.9390025841228
0.015340394656791169      649.6598598083449
0.015541804135826716      650.3941630100768
0.015743372236141022      651.1419121893186
0.015945257239325793      651.9031073460702
0.01614761668334845       652.6777484803316
0.01634987940592303       653.5458342619847
0.016551668047823844      654.4031653197964
0.016753140015983766      655.2497416537665
0.0169544534601584        656.0855632638952
0.017155766903708087      656.9106301501824
0.017357238869994664      657.7249423126283
0.017559027508778132      658.5284997512326
0.01776129022699866       659.3213024659955
0.017963625484858744      660.1386989085127
0.018165486461237414      660.9327947697294
0.018367030641941378      661.7035900496459
0.018568416255992027      662.4510847482619
0.018769801906169285      663.1752788655776
0.018971346195167795      663.876172401593
0.019173207351754082      664.5537653563078
0.019375542861313405      665.2080577297224
0.019577832661189145      665.8741679307802
0.019779648217873542      666.4930118641059
0.019981146975907166      667.0645895296993
0.020182487123025287      667.5889009275605
0.020383827220813066      668.0659460576895
0.020585325830972126      668.4957249200863
0.020787141141585735      668.878237514751
0.020989430597769934      669.2134838416836
0.021191672662378012      669.6257635663861
0.021393441061935803      669.9792993373991
0.02159489309031221       670.2740911547228
0.021796186783028852      670.5101390183569
0.021997480548535182      670.6874429283015
0.022198932795108938      670.8060028845567
0.022400701557758636      670.8658188871226
0.02260294412950465       670.866890935999
0.02280539620920995       670.9043037535873
0.023007373018156245      670.8807188447612
0.02320903233274668       670.7961362095205
0.023410532675187733      670.6505558478651
0.023612032942881025      670.4439777597954
0.023813692033404853      670.176401945311
0.024015668469493705      669.847828404412
0.024218120028423832      669.4582571370985
0.024420742013481003      669.0769683558224
0.02462288751935683       668.6459111484531
0.02482471476325633       668.1650855149909
0.02502638271145666       667.6344914554353
0.025228050706933344      667.0541289697866
0.025429878092549915      666.4239980580447
0.025632023834248962      665.7440987202098
0.025834646148682177      665.0144309562816
0.026037006051731277      664.2765782312214
0.026238891444565628      663.5017788547449
0.02644045986526205       662.6900328268518
0.026641869595683754      661.8413401475426
0.02684327929182417       660.9557008168171
0.027044847609757647      660.0331148346748
0.02724673283158932       659.0735822011167
0.027449092495796006      658.0771029161419
0.02765135518998453       657.0954750438519
0.027853143803698084      656.1068666449695
0.028054615743803996      655.1112777194943
0.028255929159991804      654.1087082674264
0.028457242575555555      653.099158288766
0.028658714513790734      652.082627783513
0.028860503124391312      651.0591167516674
0.029062765814231884      650.0286251932291
0.029265100752448706      649.0038012549118
0.02946696141141544       648.0034466527273
0.029668505276199596      647.0275613866759
0.029869890575077548      646.0761454567574
0.03007127591008127       645.1491988629718
0.030272819883157453      644.2467216053194
0.03047468072232762       643.3687136837997
0.030677015912237836      642.5151750984131
0.030879305594778746      641.727595363793
0.03108112103494649       640.9772327457762
0.031282619677010744      640.2640872443626
0.03148395970843373       639.5881588595524
0.0316852996905265        638.9494475913456
0.031886798184716555      638.3479534397421
0.032088613378814135      637.783676404742
0.03229090271766436       637.2566164863451
0.03249314477533616       636.8887266090577
0.03269491316800606       636.5738522249693
0.03289636518952694       636.3119933340797
0.03309765887540427       636.1031499363893
0.033298952634071295      635.9473220318978
0.033500404873789524      635.8445096206052
0.03370217362955133       635.7947127025118
0.03390441619436107       635.7979312776171
0.03410686840969767       635.8947284596595
0.03430884535332711       636.0447495965246
0.0345105048019665        636.2479946882125
0.034712005278138794      636.5044637347231
0.03491350567956333       636.8141567360565
0.03511516490413611       637.1770736922127
0.035317141474908095      637.5932146031914
0.03551959316946952       638.062579468993
0.035722216260139425      638.6573737753804
0.03592436286389621       639.2930186179917
0.036126191200505704      639.9695139968268
0.03632786023882611       640.6868599118859
0.03652952932442421       641.4450563631689
0.036731357802754806      642.2441033506756
0.03693350464234149       643.0840008744062
0.03713612806239678       643.9647489343608
0.03733848789969145       644.8997175419623
0.037540373227224554      645.8550688058028
0.03774194158292153       646.8308027258823
0.03794335124849304       647.8269193022008
0.03814476087977932       648.8434185347585
0.03834632913270157       649.8803004235549
0.03854821428921239       650.9375649685907
0.038750573887637245      652.0152121698653
0.03895283596123875       653.1458338869678
0.039154623958694366      654.2649591539082
0.039356095285438375      655.3725879706861
0.03955740808971597       656.468720337302
0.03975872089337115       657.5533562537555
0.03996019221824938       658.6264957200469
0.04016198021260023       659.6881387361757
0.04036424228186526       660.7382853021426
0.040566577948397485      661.7755446371242
0.040768439330593605      662.7799926150182
0.04096998391520435       663.7516292358243
0.04117136993220262       664.6904544995429
0.04137275598532357       665.5964684061736
0.04157430067821714       666.4696709557169
0.04177616224060133       667.310062148172
0.0419784981588055        668.1176419835399
0.04218078754816035       668.903178860283
0.04238260269718259       669.6313527569932
0.04258410104946696       670.302163673671
0.04278544079179545       670.915611610316
0.04298678048479618       671.4716965669284
0.043188278689213704      671.9704185435078
0.043390093592177985      672.4117775400548
0.04359238263785921       672.7957735565689
0.043794623705544454      673.2118306518715
0.04399639111513442       673.5640083581305
0.04419784215819482       673.8523066753456
0.04439913486792596       674.0767256035172
0.044600427650446826      674.2372651426448
0.04480187891170468       674.3339252927288
0.045003646684386715      674.366706053769
0.04520588825921017       674.3356074257656
