% Model:              brazing.mph
% Version:            COMSOL 5.3.0.223
% Date:               Oct 23 2018, 13:14
% Dimension:          1
% Nodes:              225
% Expressions:        1
% Description:        Line graph
% x                       Height
0                         670.8343578450855
2.02242572596226E-4       670.8286785796084
4.040113375593453E-4      670.7612739807889
6.054635867748898E-4      670.6321440486267
8.067573541103817E-4      670.4412887831221
0.0010080510467017985     670.1887081842749
0.001209503071861434      669.8744022520851
0.0014112714639836859     669.4983709865526
0.001613513515825394      669.0606143876777
0.001815803045808458      668.6731579092494
0.0020176184164428694     668.2402220271096
0.0022191170764546647     667.7618067412583
0.0024204572175778446     667.2379120516954
0.00262179740518867       666.668537958421
0.002823296204553664      666.053684461435
0.0030251118070788686     665.3933515607375
0.003227401660948015      664.6875392563285
0.0034297372965816655     664.0025772606058
0.003631598594156443      663.281417409555
0.0038331430353414214     662.5240597031765
0.004034528845142556      661.7305041414701
0.004235914622467191      660.9007507244357
0.004437458966299354      660.0347994520736
0.004639320101874085      659.1326503243833
0.004841655511239337      658.1943033413654
0.005043918276497792      657.3417242614839
0.005245706959792293      656.4770286568709
0.0054471789681153834     655.6002165275262
0.00564849245128538       654.71128787345
0.005849805932728159      653.8102426946423
0.006051277935873691      652.8970809911032
0.00625306661055245       651.9718027628323
0.006455329363777148      651.0344080098299
0.0066576887471433525     650.1258755802556
0.0068595736811967985     649.235264117621
0.007061141707903535      648.3625736219258
0.007262551112883539      647.5078040931702
0.007463960555734714      646.6709555313541
0.007665528695965537      645.8520279364777
0.00786741381892875       645.0510213085407
0.0080697734661485        644.2679356475434
0.008272395437950266      643.5649597009661
0.008474540847339949      642.883663698155
0.008676367906616744      642.2240476391098
0.008878035577337231      641.5861115238306
0.009079703197965442      640.9698553523174
0.009281530107084053      640.37527912457
0.00948367526660416       639.802382840589
0.009686296889411194      639.2511665003736
0.009888748367913874      638.9041873061533
0.010090724718905934      638.5938343066925
0.010292383720552634      638.3201075019914
0.010493883896490891      638.0830068920499
0.010695384145210549      637.8825324768679
0.010897043365029401      637.7186842564456
0.011099020079070253      637.591462230783
0.011301472064648224      637.5008663998799
0.011503924099142101      637.5115290025714
0.011705900863193036      637.5599508230249
0.011907560133099505      637.6461318612406
0.012109060430962503      637.7700721172183
0.012310560654077738      637.9317715909583
0.012512219699917606      638.1312302824601
0.012714196091111104      638.3684481917243
0.012916647604829811      638.6434253187505
0.013119269382981878      639.0676948931733
0.013321414683399362      639.5219868480208
0.013523241722808088      640.0063011832927
0.013724909467002238      640.5206378989891
0.013926577258472442      641.0649969951099
0.014128404439597363      641.6393784716553
0.014330549975836581      642.2437823286251
0.01453317208336263       642.8782085660195
0.014735531766219815      643.5809402179792
0.014937416940401616      644.2953071093073
0.015138985143475461      645.0213092400039
0.015340394656791169      645.7589466100688
0.015541804135826716      646.5082192195023
0.015743372236141022      647.2691270683042
0.015945257239325793      648.0416701564745
0.01614761668334845       648.8258484840132
0.01634987940592303       649.7263206096669
0.016551668047823844      650.6137976923882
0.016753140015983766      651.4882797321774
0.0169544534601584        652.3497667290344
0.017155766903708087      653.1982586829591
0.017357238869994664      654.0337555939517
0.017559027508778132      654.8562574620121
0.01776129022699866       655.6657642871402
0.017963625484858744      656.5012979694891
0.018165486461237414      657.3126764174682
0.018367030641941378      658.0998996310776
0.018568416255992027      658.8629676103172
0.018769801906169285      659.6018803551872
0.018971346195167795      660.3166378656872
0.019173207351754082      661.0072401418176
0.019375542861313405      661.6736871835783
0.019577832661189145      662.3603616996786
0.019779648217873542      662.9957190368243
0.019981146975907166      663.5797591950152
0.020182487123025287      664.1124821742515
0.020383827220813066      664.593887974533
0.020585325830972126      665.0239765958598
0.020787141141585735      665.4027480382318
0.020989430597769934      665.7302023016493
0.021191672662378012      666.1640882633702
0.021393441061935803      666.5358534909626
0.02159489309031221       666.8454979844264
0.021796186783028852      667.0930217437616
0.021997480548535182      667.2784247689682
0.022198932795108938      667.4017070600464
0.022400701557758636      667.4628686169959
0.02260294412950465       667.4619094398168
0.02280539620920995       667.5069087950303
0.023007373018156245      667.4875606528484
0.02320903233274668       667.4038650132709
0.023410532675187733      667.2558218762978
0.023612032942881025      667.0434312419292
0.023813692033404853      666.7666931101652
0.024015668469493705      666.4256074810056
0.024218120028423832      666.0201743544505
0.024420742013481003      665.6401677257729
0.02462288751935683       665.2074811816819
0.02482471476325633       664.7221147221777
0.02502638271145666       664.1840683472601
0.025228050706933344      663.5933420569293
0.025429878092549915      662.9499358511849
0.025632023834248962      662.2538497300274
0.025834646148682177      661.5050836934566
0.026037006051731277      660.753916201462
0.026238891444565628      659.9631600102482
0.02644045986526205       659.1328151198153
0.026641869595683754      658.2628815301636
0.02684327929182417       657.3533592412927
0.027044847609757647      656.4042482532028
0.02724673283158932       655.4155485658938
0.027449092495796006      654.3872601793657
0.02765135518998453       653.3906152888803
0.027853143803698084      652.3850919299414
0.028054615743803996      651.3706901025489
0.028255929159991804      650.3474098067031
0.028457242575555555      649.3152510424039
0.028658714513790734      648.2742138096511
0.028860503124391312      647.224298108445
0.029062765814231884      646.1655039387854
0.029265100752448706      645.1123287271239
0.02946696141141544       644.0839061131903
0.029668505276199596      643.0802360969848
0.029869890575077548      642.1013186785073
0.03007127591008127       641.1471538577576
0.030272819883157453      640.2177416347362
0.03047468072232762       639.3130820094426
0.030677015912237836      638.4331749818772
0.030879305594778746      637.6296381103099
0.03108112103494649       636.8615460721769
0.031282619677010744      636.1288988674784
0.03148395970843373       635.4316964962144
0.0316852996905265        634.7699389583848
0.031886798184716555      634.1436262539895
0.032088613378814135      633.5527583830288
0.03229090271766436       632.9973353455024
0.03249314477533616       632.6292608188116
0.03269491316800606       632.3134999191668
0.03289636518952694       632.0500526465676
0.03309765887540427       631.8389190010141
0.033298952634071295      631.6800989825064
0.033500404873789524      631.5735925910446
0.03370217362955133       631.5193998266284
0.03390441619436107       631.517520689258
0.03410686840969767       631.6193572386143
0.03430884535332711       631.7738692213666
0.0345105048019665        631.9810566375147
0.034712005278138794      632.240919487059
0.03491350567956333       632.5534577699993
0.03511516490413611       632.9186714863356
0.035317141474908095      633.3365606360678
0.03551959316946952       633.807125219196
0.035722216260139425      634.422081715565
0.03592436286389621       635.0773131499768
0.036126191200505704      635.7728195224315
0.03632786023882611       636.5086008329289
0.03652952932442421       637.2846570814692
0.036731357802754806      638.1009882680522
0.03693350464234149       638.9575943926783
0.03713612806239678       639.854475455347
0.03733848789969145       640.8135120495633
0.037540373227224554      641.7919963855802
0.03774194158292153       642.7899284633978
0.03794335124849304       643.807308283016
0.03814476087977932       644.844135844435
0.03834632913270157       645.9004111476544
0.03854821428921239       646.9761341926745
0.038750573887637245      648.0713049794954
0.03895283596123875       649.2361637592765
0.039154623958694366      650.3876374108803
0.039356095285438375      651.5257259343068
0.03955740808971597       652.6504293295561
0.03975872089337115       653.7617475966282
0.03996019221824938       654.859680735523
0.04016198021260023       655.9442287462406
0.04036424228186526       657.0153916287809
0.040566577948397485      658.0733662241806
0.040768439330593605      659.0973879157341
0.04096998391520435       660.0874567034413
0.04117136993220262       661.043572587302
0.04137275598532357       661.9657355673165
0.04157430067821714       662.8539456434848
0.04177616224060133       663.7082028158067
0.0419784981588055        664.5285070842822
0.04218078754816035       665.3349031387048
0.04238260269718259       666.0795759019917
0.04258410104946696       666.7625253741428
0.04278544079179545       667.3837515551581
0.04298678048479618       667.9432544450377
0.043188278689213704      668.4410340437817
0.043390093592177985      668.8770903513897
0.04359238263785921       669.2514233678621
0.043794623705544454      669.6846783654968
0.04399639111513442       670.0506795951367
0.04419784215819482       670.3494270567819
0.04439913486792596       670.5809207504321
0.044600427650446826      670.7451606760876
0.04480187891170468       670.8421468337485
0.045003646684386715      670.8718792234145
0.04520588825921017       670.8343578450855
