% Model:              brazing.mph
% Version:            COMSOL 5.3.0.223
% Date:               Oct 24 2018, 05:40
% Dimension:          1
% Nodes:              145
% Expressions:        1
% Description:        Line graph
% x                       Height
0                         649.03231573342
1.8037553861809572E-4     649.3084822352803
3.5951128344368776E-4     649.5276086897813
5.377561773732229E-4      649.6896950969235
7.154644111300318E-4      649.7947414567068
8.929933875627798E-4      649.8427477691309
0.0010707015910786408     649.833714034196
0.0012489464247083767     649.7676402519019
0.0014280820795340731     649.6445264222489
0.0016084574989771061     649.4643725452369
0.0017793134314883058     649.3946589412557
0.0019491114898538484     649.2986833067819
0.002118149876008701      649.176445641816
0.0022867308232763497     649.0279459463578
0.002455159027530182      648.8531842204073
0.0026237400128558564     648.6521604639646
0.0027927784749207734     648.4248746770296
0.0029625766466419693     648.1713268596021
0.0031334327293582195     647.8915170116826
0.0033042867504275058     647.7065090374784
0.0034740828875811486     647.5157995737882
0.0036431193341009516     647.3193886206125
0.0038116983146850476     647.117276177951
0.003980124516686077      646.9094622458038
0.004148703455848711      646.6959468241706
0.004317739819749776      646.4767299130516
0.004487535833529769      646.251811512447
0.004658389691119368      646.0211916223567
0.0048387629974717405     645.8924181874546
0.005017896580971026      645.768467539904
0.005196139373513023      645.6493396797051
0.0053738455543625        645.5350346068581
0.005551372514551955      645.4255523213626
0.005729078726427549      645.320892823219
0.005907321580834967      645.2210561124268
0.006086455256670912      645.1260421889863
0.006266828685292636      645.0358510528977
0.0064472042239161545     645.1913023107153
0.0066263399687470585     645.3549744688167
0.00680458486268183       645.5268675272024
0.0069822930964438265     645.7069814858722
0.007159822072881748      645.895316344826
0.007337530276402798      646.0918721040639
0.007515775110037768      646.2966487635857
0.007694910764868775      646.5096463233917
0.007875286184317232      646.7308647834818
0.008046142116827224      647.0165977435174
0.008215940175191578      647.2932095454338
0.008384978561345261      647.5607001892315
0.008553559508611747      647.8190696749102
0.008721987712864422      648.06831800247
0.008890568698188937      648.308445171911
0.00905960716025268       648.5394511832329
0.009229405331972688      648.761336036436
0.009400261414687729      648.9740997315201
0.009571115435747398      649.3102920381498
0.009740911572891598      649.6149945184932
0.009909948019402086      649.8882071725507
0.010078526999976944      650.1299300003221
0.010246953201968763      650.3401630018077
0.010415532141122159      650.5189061770072
0.010584568505013912      650.6661595259205
0.010754364518784467      650.7819230485478
0.010925218376364454      650.8661967448891
0.011105591682722255      651.0354118965661
0.01128472526622686       651.1559879704556
0.011462968058774099      651.2279249665581
0.011640674239628768      651.2512228848732
0.011818201199823401      651.2258817254009
0.01199590741170419       651.1519014881412
0.012174150266116847      651.0292821730943
0.012353283941958112      650.8580237802599
0.012533657370585264      650.6381263096383
0.01271403176453574       650.6003937990369
0.012893166387683227      650.5055414688223
0.013071410176518557      650.3535693189954
0.013249117315197753      650.1444773495556
0.013426645199902413      649.8782655605029
0.013604352308338922      649.5549339518376
0.01378259603687098       649.1744825235594
0.013961730570013379      648.7369112756685
0.014142104844781908      648.2422202081649
0.014312959944399205      647.822701565799
0.014482757184992078      647.3776897941462
0.014651794764271453      646.907184893207
0.014820374911240972      646.4111868629813
0.014988802317395246      645.8896957034686
0.01515738250242126       645.3427114146696
0.015326420157607648      644.7702339965838
0.015496217511551624      644.1722634492112
0.015667072761367945      643.5487997725522
0.01583792791479403       643.0093434903281
0.016007725163749622      642.477776644753
0.01617676270725794       641.954099235827
0.01634534277588875       641.4383112635502
0.016513770062946447      640.9304127279223
0.01668235009015449       640.4304036289436
0.016851387551041475      639.938283966614
0.017021184676619543      639.4540537409332
0.017192039666560827      638.9777129519017
0.017372413817338207      638.5870647268521
0.017551548228302124      638.2233374991359
0.017729791836073705      637.8865312687537
0.017907498824762332      637.5766460357052
0.018085026590318725      637.2936817999904
0.018262733610032132      637.0376385616092
0.018440977279666457      636.8085163205617
0.018620111782963036      636.6063150768479
0.018800486056004474      636.4310348304679
0.018980860449944497      636.5236687099475
0.019159995073081745      636.649049241972
0.019338238861906984      636.8071764265419
0.01951594600057618       636.9980502636569
0.019693473885270874      637.221670753317
0.019871180993697383      637.4780378955222
0.020049424722219357      637.7671516902725
0.02022855925535152       638.0890121375679
0.0204089335301096        638.4436192374085
0.02057978862980686       638.8656319701297
0.020749585870478253      639.2904260052348
0.020918623449835097      639.7180013427243
0.021087203596881453      640.1483579825978
0.021255631003112355      640.5814959248553
0.021424211188215206      641.017415169497
0.021593248843479067      641.4561157165226
0.021763046197501558      641.8975975659325
0.02193390144739785       642.3418607177265
0.022104756600747556      642.9390027212474
0.02227455384962815       643.5089840923638
0.02244359139306247       644.0518048310756
0.022612171461619885      644.567464937383
0.022780598748604386      645.0559644112857
0.022949178775739036      645.517303252784
0.02311821623655202       645.9514814618776
0.023288013362055097      646.3584990385667
0.023458868351919994      646.7383559828513
0.02363924250270423       647.1906647448062
0.023818376913674867      647.5936174204546
0.023996620521453065      647.947214009797
0.02417432751014825       648.2514545128331
0.02435185527571118       648.506338929563
0.024529562295431146      648.7118672599867
0.02470780596507209       648.8680395041039
0.024886940468375387      648.9748556619151
0.025067314741423676      649.03231573342
