% Model:              brazing.mph
% Version:            COMSOL 5.3.0.223
% Date:               Oct 24 2018, 00:25
% Dimension:          1
% Nodes:              225
% Expressions:        1
% Description:        Line graph
% x                       Height
0                         634.4643449769762
2.3022181212578358E-4     634.3289267214883
4.5999325066962656E-4     634.1689011879479
6.894940081029028E-4      633.9842683763544
9.189044129547812E-4      633.7750282867082
0.001148405006736289      633.5411809190094
0.0013781761183620641     633.2827262732576
0.001608397441069865      632.9996643494532
0.001839314118928521      632.3233873333782
0.0020697760201574002     631.652827401966
0.002299964597801726      630.9879845552166
0.0025300619515304015     630.32885879313
0.0027602503975112853     629.6754501157066
0.0029907120357255193     629.0277585229455
0.003221628319839081      628.3857840148477
0.0034518885683530987     627.5317470132197
0.0036816980188178403     626.6707943505554
0.003911236592567028      625.8029260268543
0.004140684848157368      624.9281420421165
0.004370223557282477      624.0464423963425
0.004600033278179856      623.1578270895315
0.004830293931548535      622.262296121684
0.005060048526376791      621.1806500117739
0.005289355629682316      620.1121809106495
0.005518393850920054      619.0568888183108
0.005747342428834         618.0147737347579
0.00597638081262499       616.9858356599909
0.006205688240655705      615.9700745940094
0.006435443321622868      614.9674905368137
0.006665339619110656      613.8830417361883
0.006894787442849326      612.8189908306382
0.007123965728649401      611.7753378201636
0.007353054043912613      610.7520827047647
0.007582232167524012      609.7492254844415
0.007811679667266285      608.7667661591934
0.008041575479707366      607.804704729021
0.008271887219609135      606.8333542249846
0.008501747728772392      605.8967146700421
0.008731337046705121      604.9947860641931
0.008960835851156599      604.1275684074377
0.009190425033567954      603.2950616997763
0.009420285272008154      602.4972659412082
0.009650596606620833      601.7341811317339
0.009881512912836019      600.9962987372714
0.010111974573021956      600.3060218861302
0.010342163040896366      599.6633505783095
0.010572260416492441      599.0682848138099
0.010802449016030204      598.5208245926314
0.011032910939230619      598.0209699147733
0.011263827639190652      597.5687207802365
0.011494048967061755      597.1371960514477
0.011723820083820682      596.7788987312478
0.011953320682717213      596.4938288196367
0.012182731092678062      596.2819863166146
0.012412231855226382      596.1433712221816
0.012642003298903411      596.0779835363372
0.012872225116192546      596.085823259082
0.013102446994778118      595.9463151746352
0.013332218499393473      595.9006269000753
0.01356171932266464       595.9487584354023
0.013791129793276359      596.0907097806161
0.01402063045289555       596.326480935717
0.014250401630592404      596.6560719007047
0.014480623019759359      597.0794826755792
0.014711539835704642      597.3330112464942
0.014942001874208778      597.6668509733786
0.015172190588640395      598.0810018562321
0.01540228807899374       598.575463895055
0.015632476661762654      599.1502370898476
0.015862938437253588      599.8053214406091
0.01609385485945594       600.5407169473401
0.016324115336228646      601.1899201324131
0.016553925013622208      601.8775974321375
0.016783463813500554      602.6037488465131
0.017012912294953733      603.36837437554
0.01724245123020976       604.1714740192186
0.01747226117803945       605.0130477775482
0.017702522059672054      605.8930956505294
0.017932276794613372      606.7728154574326
0.018161584037218948      607.6782589182071
0.018390622397267263      608.609426032853
0.018619571113827754      609.56631680137
0.018848609636427344      610.5489312237588
0.019077917203754128      611.5572693000186
0.019307672424828403      612.5913310301498
0.019537568573699274      613.5293338436992
0.01976701624968263       614.483477186669
0.019996194388245302      615.4537610590589
0.020225282556443316      616.4401854608693
0.020454460532815345      617.4427503921004
0.02068390788479834       618.4614558527513
0.020913803548616574      619.4963018428228
0.02114411498977932       620.3191657971712
0.021373975201947604      621.1564012488211
0.02160356422393484       622.0080081977728
0.02183306273279162       622.8739866440262
0.02206265161925901       623.7543365875815
0.02229251156070728       624.649058028438
0.02252282259658549       625.5581509665966
0.022753738766914562      626.1398277864613
0.022984200292012823      626.7251781260483
0.023214388625279938      627.3142019853576
0.023444485866429166      627.9068993643891
0.023674674331359946      628.5032702631435
0.023905136119473275      629.1033146816196
0.024136052683548088      629.7070326198184
0.024366274021741702      629.90945118092
0.024596045148762867      630.1160407639376
0.024825545757885373      630.3268013688711
0.02505495617806012       630.5417329957208
0.02528445695083446       630.7608356444869
0.025514228404773787      630.9841093151686
0.025744450232385536      631.2115540077666
0.025974672267095825      631.0789647786097
0.026204443926923768      630.9280177399984
0.02643394490485871       630.7587128919326
0.02666335552995085       630.5710502344126
0.026892856344233315      630.3650297674385
0.02712262767714175       630.1406514910096
0.02735284922243193       629.8979154051266
0.027583766528201624      629.2575486831616
0.027814229053652367      628.6113105333629
0.028044418253299775      627.95920095573
0.02827451622829193       627.3012199502632
0.028504705296278778      626.6373675169626
0.028735167558720572      625.9676436558277
0.028966084470753738      625.292048366859
0.029196345605491433      624.4551123413926
0.02942615593701711       623.5893078856526
0.02965569538872289       622.6946349996389
0.029885144521236064      621.7710936833514
0.030114684108324883      620.8186839367908
0.030344494710297387      619.837405759956
0.030574756249911007      618.8272591528479
0.030804511377321087      617.7258351436217
0.031033819010118435      616.6167729534772
0.031262857758987544      615.5000725824141
0.03149180686390927       614.3757340304326
0.031720845775323685      613.2437572975331
0.031950153732830305      612.1041423837147
0.032179909346355486      610.9568892889782
0.0324098051544111        609.8225967820965
0.032639252491552244      608.6961140775732
0.03286843029245836       607.5774411754079
0.0330975181233935        606.4665780756011
0.03332669576210278       605.363524778153
0.03355614277523119       604.2682812830628
0.033786038098215655      603.1808475903312
0.034016348759356954      602.1432828192208
0.03424620819605658       601.139197969625
0.034475796445315066      600.1685930415438
0.03470529418235937       599.2314680349774
0.03493488229610333       598.3278229499259
0.035164741462093585      597.4576577863888
0.03539505171796626       596.6209725443665
0.035625967353597694      595.8462445985116
0.03585642834714083       595.1255445416341
0.036086616150743635      594.4588723737337
0.03631671286286018       593.846228094811
0.03654690079812825       593.2876117048656
0.036777362054689705      592.7830232038974
0.03700827808407173       592.3324625919068
0.03723849938140827       591.9326246387262
0.03746827046781093       591.6121341645471
0.03769777103645843       591.3709911693696
0.03792718141620601       591.2091956531937
0.0381566821485052        591.1267476160197
0.03838645356182577       591.123647057847
0.03861667534858004       591.1998939786762
0.038846895274787324      591.1775132032468
0.039076664838430766      591.2538454587644
0.03930616372759302       591.4288907452288
0.03953557226638858       591.7026490626404
0.039765070991905134      592.075120410999
0.039994840228642616      592.5463047903044
0.040225059665450036      593.1162022005569
0.04045597761776665       593.5697897491009
0.04068644078597457       594.1047873081824
0.04091663062609736       594.7211948778015
0.041146729240799984      595.4190124579585
0.04137691894925231       596.1982400486534
0.04160738185443156       597.0588776498855
0.04183829941298208       598.0009252616557
0.04206856149768976       598.8882801505193
0.04229837277362926       599.8114225267406
0.04252791316640542       600.7703523903193
0.04275736323887129       601.7650697412557
0.04298690376702529       602.7955745795501
0.04321671531340127       603.8618669052016
0.04344697780296935       604.963946718211
0.043676731016186174      606.1212497541109
0.04390603674591497       607.2874365671264
0.04413507359840861       608.4625071572574
0.04436402080919017       609.646461524504
0.044593057824233256      610.8392996688665
0.04482236387867965       612.0410215903441
0.045052117578024006      613.2516272889376
0.045282012653644836      614.4671142783208
0.045511459262636354      615.6680467719194
0.04574063633797325       616.8544247697334
0.04596972344420469       618.0262482717628
0.046198900357357554      619.1835172780079
0.046428346642361965      620.326231788468
0.04665824123294997       621.4543918031437
0.04688855484177433       622.4966883456492
0.04711841720894409       623.5189616300029
0.04734800837831597       624.5212116562047
0.04757750903201372       625.5034384242546
0.047807100065861544      626.4656419341529
0.04803696216230292       627.407822185899
0.04826727536583021       628.3299791794934
0.048498193048686675      629.0439671829363
0.048728656077441146      629.7358543998483
0.04895884590902903       630.4056408302293
0.04918894464672031       631.0533264740798
0.04941913460997818       631.6789113313994
0.04964959790176041       632.2823954021878
0.04988051597838159       632.8637786864457
0.05011073543954296       633.1154429835166
0.0503405047004922        633.35943662397
0.05057000345013497       633.5957596078059
0.05079941201302823       633.8244119350245
0.05102891092631677       634.045393605626
0.05125868051417213       634.2587046196097
0.051488900464733596      634.4643449769762
