% Model:              brazing.mph
% Version:            COMSOL 5.3.0.223
% Date:               Oct 24 2018, 04:28
% Dimension:          1
% Nodes:              145
% Expressions:        1
% Description:        Line graph
% x                       Height
0                         776.1881659160664
1.8037553861809572E-4     776.4406374246099
3.5951128344368776E-4     776.6407720770975
5.377561773732229E-4      776.7885698735296
7.154644111300318E-4      776.884030813906
8.929933875627798E-4      776.9271548982266
0.0010707015910786408     776.9179421264918
0.0012489464247083767     776.8563924987008
0.0014280820795340731     776.7425060148545
0.0016084574989771061     776.5762826749525
0.0017793134314883058     776.5096641235172
0.0019491114898538484     776.4194111215587
0.002118149876008701      776.3055236690774
0.0022867308232763497     776.1680017660732
0.002455159027530182      776.0068454125459
0.0026237400128558564     775.8220546084957
0.0027927784749207734     775.6136293539224
0.0029625766466419693     775.3815696488263
0.0031334327293582195     775.1258754932072
0.0033042867504275058     774.9587166688453
0.0034740828875811486     774.7866198041228
0.0036431193341009516     774.6095848990398
0.0038116983146850476     774.4276119535965
0.003980124516686077      774.2407009677928
0.004148703455848711      774.0488519416286
0.004317739819749776      773.8520648751038
0.004487535833529769      773.6503397682189
0.004658389691119368      773.4436766209734
0.0048387629974717405     773.3287110578298
0.005017896580971026      773.2175749949014
0.005196139373513023      773.110268432189
0.0053738455543625        773.006791369692
0.005551372514551955      772.9071438074105
0.005729078726427549      772.8113257453446
0.005907321580834967      772.7193371834943
0.006086455256670912      772.6311781218593
0.006266828685292636      772.5468485604403
0.0064472042239161545     772.6936902906065
0.0066263399687470585     772.8475893412548
0.00680458486268183       773.0085457123859
0.0069822930964438265     773.1765594039997
0.007159822072881748      773.3516304160954
0.007337530276402798      773.5337587486741
0.007515775110037768      773.7229444017352
0.007694910764868775      773.9191873752785
0.007875286184317232      774.1224876693046
0.008046142116827224      774.3818884254794
0.008215940175191578      774.6329564378001
0.008384978561345261      774.8756917062668
0.008553559508611747      775.1100942308796
0.008721987712864422      775.3361640116383
0.008890568698188937      775.5539010485433
0.00905960716025268       775.763305341594
0.009229405331972688      775.9643768907905
0.009400261414687729      776.1571156961335
0.009571115435747398      776.4658326763171
0.009740911572891598      776.7460191006668
0.009909948019402086      776.9976749691833
0.010078526999976944      777.220800281866
0.010246953201968763      777.4153950387152
0.010415532141122159      777.5814592397309
0.010584568505013912      777.7189928849128
0.010754364518784467      777.827995974261
0.010925218376364454      777.9084685077759
0.011105591682722255      778.0631751969835
0.01128472526622686       778.1737863053769
0.011462968058774099      778.2403018329563
0.011640674239628768      778.2627217797218
0.011818201199823401      778.2410461456733
0.01199590741170419       778.1752749308108
0.012174150266116847      778.0654081351341
0.012353283941958112      777.9114457586437
0.012533657370585264      777.7133878013393
0.01271403176453574       777.6880012727721
0.012893166387683227      777.610480870694
0.013071410176518557      777.4808265951057
0.013249117315197753      777.2990384460064
0.013426645199902413      777.0651164233965
0.013604352308338922      776.7790605272761
0.01378259603687098       776.4408707576446
0.013961730570013379      776.0505471145028
0.014142104844781908      775.6080895978504
0.014312959944399205      775.2328968438529
0.014482757184992078      774.8346905107309
0.014651794764271453      774.4134705984849
0.014820374911240972      773.9692371071145
0.014988802317395246      773.50199003662
0.01515738250242126       773.0117293870011
0.015326420157607648      772.498455158258
0.015496217511551624      771.9621673503904
0.015667072761367945      771.4028659633988
0.01583792791479403       770.9226777077218
0.016007725163749622      770.4493042578987
0.01617676270725794       769.98274561393
0.01634534277588875       769.5230017758153
0.016513770062946447      769.0700727435548
0.01668235009015449       768.6239585171485
0.016851387551041475      768.1846590965964
0.017021184676619543      767.7521744818981
0.017192039666560827      767.3265046730543
0.017372413817338207      766.9773111462363
0.017551548228302124      766.6513324172646
0.017729791836073705      766.3485684861395
0.017907498824762332      766.0690193528607
0.018085026590318725      765.8126850174286
0.018262733610032132      765.5795654798427
0.018440977279666457      765.3696607401031
0.018620111782963036      765.18297079821
0.018800486056004474      765.0194956541637
0.018980860449944497      765.1065049924545
0.019159995073081745      765.2221385999643
0.019338238861906984      765.3663964766935
0.01951594600057618       765.539278622642
0.019693473885270874      765.7407850378098
0.019871180993697383      765.9709157221965
0.020049424722219357      766.2296706758028
0.02022855925535152       766.517049898628
0.0204089335301096        766.8330533906727
0.02057978862980686       767.2087332555917
0.020749585870478253      767.5858197213266
0.020918623449835097      767.9643127878777
0.021087203596881453      768.3442124552449
0.021255631003112355      768.7255187234279
0.021424211188215206      769.1082315924274
0.021593248843479067      769.4923510622424
0.021763046197501558      769.8778771328738
0.02193390144739785       770.2648098043211
0.022104756600747556      770.8000106817088
0.02227455384962815       771.3103100547304
0.02244359139306247       771.7957079233864
0.022612171461619885      772.2562042876767
0.022780598748604386      772.6917991476008
0.022949178775739036      773.1024925031596
0.02311821623655202       773.488284354352
0.023288013362055097      773.8491747011791
0.023458868351919994      774.18516354364
0.02363924250270423       774.5864088945046
0.023818376913674867      774.9429818624427
0.023996620521453065      775.2548824474542
0.02417432751014825       775.5221106495393
0.02435185527571118       775.7446664686978
0.024529562295431146      775.9225499049297
0.02470780596507209       776.055760958235
0.024886940468375387      776.1442996286138
0.025067314741423676      776.1881659160664
