% Model:              brazing.mph
% Version:            COMSOL 5.3.0.223
% Date:               Oct 24 2018, 04:31
% Dimension:          1
% Nodes:              145
% Expressions:        1
% Description:        Line graph
% x                       Height
0                         714.3600172554311
1.8037553861809572E-4     714.6232426039651
3.5951128344368776E-4     714.8320563493975
5.377561773732229E-4      714.9864584917285
7.154644111300318E-4      715.0864490309581
8.929933875627798E-4      715.1320279670861
0.0010707015910786408     715.1231953001128
0.0012489464247083767     715.0599510300381
0.0014280820795340731     714.9422951568616
0.0016084574989771061     714.7702276805838
0.0017793134314883058     714.7026204554875
0.0019491114898538484     714.6102826508696
0.002118149876008701      714.4932142667307
0.0022867308232763497     714.3514153030703
0.002455159027530182      714.1848857598886
0.0026237400128558564     713.9936256371858
0.0027927784749207734     713.7776349349614
0.0029625766466419693     713.5369136532157
0.0031334327293582195     713.2714617919488
0.0033042867504275058     713.0981355163043
0.0034740828875811486     712.9194878455323
0.0036431193341009516     712.735518779633
0.0038116983146850476     712.5462283186064
0.003980124516686077      712.3516164624524
0.004148703455848711      712.151683211171
0.004317739819749776      711.946428564762
0.004487535833529769      711.735852523226
0.004658389691119368      711.5199550865624
0.0048387629974717405     711.4005006774505
0.005017896580971026      711.2850504795936
0.005196139373513023      711.1736044929922
0.0053738455543625        711.0661627176461
0.005551372514551955      710.9627251535553
0.005729078726427549      710.8632918007195
0.005907321580834967      710.7678626591392
0.006086455256670912      710.6764377288141
0.006266828685292636      710.5890170097442
0.0064472042239161545     710.7408642898026
0.0066263399687470585     710.9000608189349
0.00680458486268183       711.0666065971416
0.0069822930964438265     711.2405016244223
0.007159822072881748      711.4217459007775
0.007337530276402798      711.6103394262066
0.007515775110037768      711.8062822007099
0.007694910764868775      712.0095742242872
0.007875286184317232      712.220215496939
0.008046142116827224      712.4905401944574
0.008215940175191578      712.7520935211418
0.008384978561345261      713.0048754769928
0.008553559508611747      713.2488860620097
0.008721987712864422      713.4841252761928
0.008890568698188937      713.7105931195423
0.00905960716025268       713.9282895920577
0.009229405331972688      714.1372146937395
0.009400261414687729      714.3373684245876
0.009571115435747398      714.6578042353126
0.009740911572891598      714.9484295449413
0.009909948019402086      715.209244353474
0.010078526999976944      715.4402486609106
0.010246953201968763      715.6414424672512
0.010415532141122159      715.8128257724956
0.010584568505013912      715.9543985766437
0.010754364518784467      716.0661608796956
0.010925218376364454      716.1481126816517
0.011105591682722255      716.3088961957253
0.01128472526622686       716.4236697860982
0.011462968058774099      716.4924334527709
0.011640674239628768      716.515187195743
0.011818201199823401      716.4919310150145
0.01199590741170419       716.4226649105856
0.012174150266116847      716.307388882456
0.012353283941958112      716.1461029306262
0.012533657370585264      715.9388070550958
0.01271403176453574       715.9102082570413
0.012893166387683227      715.8273196133264
0.013071410176518557      715.6901411239515
0.013249117315197753      715.4986727889165
0.013426645199902413      715.252914608221
0.013604352308338922      714.9528665818656
0.01378259603687098       714.5985287098499
0.013961730570013379      714.1899009921739
0.014142104844781908      713.7269834288379
0.014312959944399205      713.3348337074235
0.014482757184992078      712.9186014371907
0.014651794764271453      712.4782866181397
0.014820374911240972      712.0138892502705
0.014988802317395246      711.5254093335831
0.01515738250242126       711.0128468680774
0.015326420157607648      710.4762018537534
0.015496217511551624      709.9154742906112
0.015667072761367945      709.330664178651
0.01583792791479403       708.8280290975204
0.016007725163749622      708.332499994396
0.01617676270725794       707.8440768692781
0.01634534277588875       707.3627597221666
0.016513770062946447      706.8885485530616
0.01668235009015449       706.4214433619628
0.016851387551041475      705.9614441488702
0.017021184676619543      705.5085509137841
0.017192039666560827      705.0627636567046
0.017372413817338207      704.6978682867934
0.017551548228302124      704.3573524066225
0.017729791836073705      704.0412160161918
0.017907498824762332      703.7494591155016
0.018085026590318725      703.4820817045517
0.018262733610032132      703.2390837833417
0.018440977279666457      703.0204653518723
0.018620111782963036      702.8262264101431
0.018800486056004474      702.6563669581543
0.018980860449944497      702.7463719294907
0.019159995073081745      702.8663926148514
0.019338238861906984      703.0164290142369
0.01951594600057618       703.1964811276468
0.019693473885270874      703.4065489550813
0.019871180993697383      703.6466324965405
0.020049424722219357      703.9167317520239
0.02022855925535152       704.216846721532
0.0204089335301096        704.5469774050646
0.02057978862980686       704.9403225844203
0.020749585870478253      705.3354196377456
0.020918623449835097      705.732268565041
0.021087203596881453      706.1308693663059
0.021255631003112355      706.5312220415404
0.021424211188215206      706.9333265907451
0.021593248843479067      707.3371830139191
0.021763046197501558      707.7427913110631
0.02193390144739785       708.1501514821769
0.022104756600747556      708.7095354128104
0.02227455384962815       709.2430096345928
0.02244359139306247       709.7505741475246
0.022612171461619885      710.2322289516056
0.022780598748604386      710.6879740468358
0.022949178775739036      711.1178094332151
0.02311821623655202       711.5217351107436
0.023288013362055097      711.8997510794213
0.023458868351919994      712.2518573392482
0.02363924250270423       712.6725920559246
0.023818376913674867      713.0467030911036
0.023996620521453065      713.3741904447853
0.02417432751014825       713.6550541169697
0.02435185527571118       713.8892941076567
0.024529562295431146      714.0769104168463
0.02470780596507209       714.2179030445386
0.024886940468375387      714.3122719907336
0.025067314741423676      714.3600172554311
