% Model:              brazing.mph
% Version:            COMSOL 5.3.0.223
% Date:               Oct 24 2018, 04:58
% Dimension:          1
% Nodes:              193
% Expressions:        1
% Description:        Line graph
% x                       Height
0                         626.6133803275737
1.6028433640637486E-4     626.6982833943462
3.201839556876346E-4      626.7754417767939
4.7982673004648776E-4     626.8448554749167
6.393411493738095E-4      626.9065244887148
7.988560137323205E-4      626.9604488181881
9.58500122107595E-4       627.0066284633364
0.0011184019611720658     627.04506342416
0.0012786893978073315     627.0757537006588
0.0014692881782178572     627.0994351772689
0.0016592398034323465     627.1051211879525
0.0018487589083489172     627.0928117327097
0.00203806159906999       627.0625068115404
0.0022273647228667317     627.0142064244446
0.0024168851255237504     626.9479105714223
0.002606838908709185      626.8636192524735
0.0027974407000143733     626.7613324675983
0.003000214284638094      626.6288295162857
0.0032022105766743216     626.4801253158066
0.003403687017647933      626.3152198661611
0.0036049030444305387     626.134113167349
0.0038061191011872996     625.9368052193705
0.004007595631967136      625.7232960222257
0.00420959207329518       625.4935855759143
0.00441236586612622       625.2476738804365
0.004615139632985625      624.969288955266
0.004817136048636202      624.6872153828945
0.005018612553936322      624.4014531633214
0.005219828585313435      624.1120022965472
0.005421044586718146      623.8188627825716
0.0056225210022172924     623.5220346213948
0.005824517268584787      623.2215178130167
0.006027290827249049      622.9173123574374
0.006217890949519272      622.6008112262514
0.006407844130704021      622.3039524740581
0.0065973647866391935     622.0267361008576
0.00678666880286996       621.76916210665
0.006975972806121895      621.5312304914352
0.007165493423165078      621.3129412552131
0.007355446539677438      621.1142943979839
0.007546046571713631      620.9352899197476
0.00770633524869351       620.8019851919008
0.007866237248851195      620.6873078162546
0.008025880956992212      620.5912577928087
0.008185395381580456      620.5138351215635
0.008344909844757132      620.4550398025186
0.008504553668569658      620.4148718356741
0.008664455861201733      620.3933312210303
0.008824744806995652      620.3904179585868
0.008985029143401957      620.4085249848996
0.009144928762683142      620.4498909061459
0.009304571537041926      620.5145157223255
0.009464085956369179      620.6023994334386
0.00962360082072762       620.713542039485
0.009783244929102828      620.8479435404648
0.009943146768167231      621.0056039363781
0.010103434204802428      621.1865232272248
0.010294032985212885      621.3936062474601
0.010483984610427306      621.6218612823665
0.01067350371534381       621.8712883319437
0.010862806406064813      622.1418873961918
0.011052109529861487      622.4336584751109
0.011241629932518437      622.7466015687007
0.011431583715703804      623.0807166769616
0.011622185507008923      623.4360037998933
0.011824959091632737      623.7882341136761
0.012026955383669057      624.1324239145127
0.012228431824642762      624.468573202403
0.01242964785142546       624.7966819773471
0.012630863908182311      625.116750239345
0.012832340438962243      625.4287779883965
0.01303433688029038       625.7327652245019
0.013237110673121513      626.028711947661
0.013439884439981065      626.2980999791674
0.013641880855631786      626.5465567426493
0.013843357360932049      626.7740822381068
0.014044573392309304      626.9806764655397
0.014245789393714157      627.166339424948
0.014447265809213447      627.3310711163319
0.014649262075581083      627.4748715396913
0.01485203563424549       627.5977406950262
0.015042635756515686      627.7002388894985
0.015232588937700405      627.7847823923518
0.015422109593635547      627.8513712035864
0.015611413609866287      627.9000053232022
0.015800717613118194      627.9306847511992
0.01599023823016135       627.9434094875775
0.01618019134667368       627.9381795323369
0.016370791378709844      627.9149948854775
0.016531080055689654      627.8675185771662
0.01669098205584727       627.8163119663061
0.016850625763988217      627.7613750528977
0.017010140188576394      627.7027078369409
0.017169654651752998      627.6403103184357
0.017329298475565455      627.5741824973819
0.017489200668197463      627.5043243737797
0.01764948961399131       627.430735947629
0.01780977395039525       627.3234167581486
0.017969673569674088      627.2034919241528
0.018129316344030533      627.0709614456421
0.01828883076335545       626.9258253226161
0.01844834562771156       626.7680835550751
0.01860798973608443       626.5977361430189
0.018767891575146484      626.4147830864475
0.018928179011779317      626.2192243853611
0.019118777792188433      625.9215936508813
0.019308729417401523      625.6001076571005
0.019498248522316707      625.2547664040187
0.019687551213036395      624.885569891636
0.019876854336831753      624.4925181199525
0.02006637473948738       624.0756110889679
0.020256328522671414      623.6348487986824
0.020446930313975188      623.170231249096
0.02064970389860279       622.615526075327
0.02085170019064286       622.0471105853071
0.02105317663162028       621.4649847790362
0.02125439265840668       620.8691486565144
0.021455608715167235      620.2596022177416
0.02165708524595088       619.636345462718
0.021859081687282764      618.9993783914435
0.02206185548011769       618.348701003918
0.022264629246980954      617.7021372235868
0.022466625662635346      617.068342461259
0.022668102167939252      616.4473167169351
0.022869318199320136      615.8390599906147
0.023070534200728618      615.2435722822979
0.023272010616231548      614.6608535919848
0.023474006882602858      614.0909039196753
0.02367678044127098       613.5337232653694
0.02386738056353977       612.9970508072761
0.024057333744723106      612.4970643399378
0.02424685440065687       612.0337638633546
0.024436158416886237      611.6071493775266
0.02462546242013677       611.2172208824537
0.024814983037178547      610.8639783781359
0.025004936153689494      610.5474218645732
0.025195536185724256      610.2675513417656
0.0253558248627017        610.0266366621686
0.025515726862856965      609.8169810414936
0.025675370570995573      609.6385844797408
0.02583488499558142       609.49144697691
0.02599439945875569       609.3755685330013
0.02615404328256581       609.2909491480149
0.026313945475195465      609.2375888219505
0.026474234420986946      609.2154875548081
0.026634518757392422      609.2196270717334
0.02679441837667279       609.251220355588
0.026954061151030752      609.3102674063718
0.02711357557035719       609.3967682240849
0.027273090434714816      609.5107228087272
0.027432734543089202      609.6521311602988
0.027592636382152785      609.8209932787996
0.02775292381878715       610.0173091642297
0.02794352259919713       610.2625954671549
0.02813347422441108       610.5433321699252
0.028322993329327112      610.8595192725405
0.028512296020047647      611.211156775001
0.02870159914384385       611.5982446773064
0.028891119546500334      612.0207829794571
0.02908107332968523       612.4787716814527
0.029271675120989875      612.9722107832935
0.02947444870561504       613.5151358743778
0.029676444997652693      614.0701567445013
0.02987792143862772       614.637273393664
0.030079137465411736      615.2164858218658
0.030280353522169904      615.8077940291068
0.030481830052951155      616.4111980153868
0.030683826494280624      617.0266977807061
0.030886600287113104      617.6542933250644
0.03108937405397396       618.2697159096394
0.03129137046962597       618.878498916987
0.03149284697492751       619.480642347107
0.03169406300630604       620.0761461999996
0.03189527900771217       620.6650104756645
0.03209675542321274       621.2472351741019
0.03229875168958166       621.8228202953119
0.03250152524824737       622.3917658392942
0.03269212537051706       622.8545894217222
0.03288207855170127       623.2915943114117
0.033071599207635916      623.702780508363
0.033260903223866156      624.0881480125761
0.033450207227117564      624.4476968240509
0.033639727844160215      624.7814269427873
0.03382968096067204       625.0893383687854
0.034020280992707694      625.3714311020453
0.034180569669686675      625.5727522463304
0.03434047166984347       625.7609083931601
0.0345001153779836        625.9358995425343
0.03465962980257096       626.0977256944532
0.03481914426574675       626.2463868489165
0.034978788089558385      626.3818830059244
0.03513869028218957       626.5042141654768
0.035298979227982585      626.6133803275737
