% Model:              brazing.mph
% Version:            COMSOL 5.3.0.223
% Date:               Oct 23 2018, 23:49
% Dimension:          1
% Nodes:              193
% Expressions:        1
% Description:        Line graph
% x                       Height
0                         566.1741870455007
1.6028433640637486E-4     566.2487176405544
3.201839556876346E-4      566.3164703206108
4.7982673004648776E-4     566.37744508567
6.393411493738095E-4      566.4316419357318
7.988560137323205E-4      566.4790608707963
9.58500122107595E-4       566.5197018908633
0.0011184019611720658     566.553564995933
0.0012786893978073315     566.5806501860054
0.0014692881782178572     566.6018764027166
0.0016592398034323465     566.6077275129396
0.0018487589083489172     566.5982035166749
0.00203806159906999       566.573304413922
0.0022273647228667317     566.5330302046812
0.0024168851255237504     566.4773808889526
0.002606838908709185      566.4063564667358
0.0027974407000143733     566.3199569380312
0.003000214284638094      566.2042753423643
0.0032022105766743216     566.0743829591222
0.003403687017647933      565.9302797883049
0.0036049030444305387     565.7719658299126
0.0038061191011872996     565.5994410839451
0.004007595631967136      565.4127055504024
0.00420959207329518       565.2117592292846
0.00441236586612622       564.9966021205915
0.004615139632985625      564.7539804311069
0.004817136048636202      564.5081244126169
0.005018612553936322      564.2590340651216
0.005219828585313435      564.0067093886208
0.005421044586718146      563.7511503831148
0.0056225210022172924     563.4923570486031
0.005824517268584787      563.2303293850864
0.006027290827249049      562.9650673925642
0.006217890949519272      562.6882036597614
0.006407844130704021      562.4284263781061
0.0065973647866391935     562.185735547598
0.00678666880286996       561.9601311682374
0.006975972806121895      561.7516132400241
0.007165493423165078      561.5601817629582
0.007355446539677438      561.3858367370397
0.007546046571713631      561.2285781622686
0.00770633524869351       561.1105496860512
0.007866237248851195      561.0089894094307
0.008025880956992212      560.9238973324073
0.008185395381580456      560.8552734549808
0.008344909844757132      560.8031177771513
0.008504553668569658      560.7674302989187
0.008664455861201733      560.7482110202833
0.008824744806995652      560.7454599412447
0.008985029143401957      560.7602237537739
0.009144928762683142      560.7954242953791
0.009304571537041926      560.8510615660605
0.009464085956369179      560.9271355658178
0.00962360082072762       561.0236462946514
0.009783244929102828      561.1405937525608
0.009943146768167231      561.2779779395464
0.010103434204802428      561.435798855608
0.010294032985212885      561.6163918144208
0.010483984610427306      561.8154657469655
0.01067350371534381       562.033020653242
0.010862806406064813      562.2690565332505
0.011052109529861487      562.5235733869908
0.011241629932518437      562.7965712144629
0.011431583715703804      563.0880500156669
0.011622185507008923      563.3980097906028
0.011824959091632737      563.7033255947612
0.012026955383669057      564.0016983793164
0.012228431824642762      564.293128144268
0.01242964785142546       564.5776148896166
0.012630863908182311      564.8551586153618
0.012832340438962243      565.1257593215036
0.01303433688029038       565.3894170080421
0.013237110673121513      565.6461316749773
0.013439884439981065      565.8794096762026
0.013641880855631786      566.0944648216695
0.013843357360932049      566.2912971113778
0.014044573392309304      566.469906545328
0.014245789393714157      566.6302931235196
0.014447265809213447      566.7724568459528
0.014649262075581083      566.8963977126274
0.01485203563424549       567.0021157235437
0.015042635756515686      567.0888000037589
0.015232588937700405      567.1600628307741
0.015422109593635547      567.2159042045889
0.015611413609866287      567.2563241252037
0.015800717613118194      567.2813225926183
0.01599023823016135       567.2908996068328
0.01618019134667368       567.2850551678471
0.016370791378709844      567.2637892756612
0.016531080055689654      567.221289393011
0.01669098205584727       567.1755112779541
0.016850625763988217      567.1264549304907
0.017010140188576394      567.0741203506205
0.017169654651752998      567.0185075383438
0.017329298475565455      566.9596164936602
0.017489200668197463      566.8974472165702
0.01764948961399131       566.8319997070734
0.01780977395039525       566.7381571944444
0.017969673569674088      566.6333601642756
0.018129316344030533      566.5176086165674
0.01828883076335545       566.3909025513194
0.01844834562771156       566.2532419685318
0.01860798973608443       566.1046268682045
0.018767891575146484      565.9450572503375
0.018928179011779317      565.7745331149309
0.019118777792188433      565.5156855793749
0.019308729417401523      565.2361102838574
0.019498248522316707      564.9358072283785
0.019687551213036395      564.614776412938
0.019876854336831753      564.2730178375359
0.02006637473948738       563.9105315021724
0.020256328522671414      563.5273174068474
0.020446930313975188      563.1233755515608
0.02064970389860279       562.6385705338059
0.02085170019064286       562.141685316863
0.02105317663162028       561.6327199007317
0.02125439265840668       561.1116742854122
0.021455608715167235      560.5785484709044
0.02165708524595088       560.0333424572083
0.021859081687282764      559.4760562443239
0.02206185548011769       558.9066898322513
0.022264629246980954      558.340346860383
0.022466625662635346      557.7853294365714
0.022668102167939252      557.2416375608167
0.022869318199320136      556.7092712331189
0.023070534200728618      556.188230453478
0.023272010616231548      555.678515221894
0.023474006882602858      555.180125538367
0.02367678044127098       554.6930614028967
0.02386738056353977       554.2227659278502
0.024057333744723106      553.7846258417272
0.02424685440065687       553.3786411445277
0.024436158416886237      553.0048118362517
0.02462546242013677       552.6631379168991
0.024814983037178547      552.3536193864702
0.025004936153689494      552.0762562449646
0.025195536185724256      551.8310484923826
0.0253558248627017        551.6196734651343
0.025515726862856965      551.4358825208984
0.025675370570995573      551.2796756596749
0.02583488499558142       551.1510528814638
0.02599439945875569       551.0500141862651
0.02615404328256581       550.9765595740786
0.026313945475195465      550.9306890449047
0.026474234420986946      550.9124025987431
0.026634518757392422      550.915852358812
0.02679441837667279       550.943691064088
0.026954061151030752      550.9959187145713
0.02711357557035719       551.0725353102619
0.027273090434714816      551.1735408511597
0.027432734543089202      551.2989353372648
0.027592636382152785      551.4487187685772
0.02775292381878715       551.6228911450969
0.02794352259919713       551.8387164900328
0.02813347422441108       552.0855833526069
0.028322993329327112      552.363491732819
0.028512296020047647      552.6724416306694
0.02870159914384385       553.0124330461579
0.028891119546500334      553.3834659792844
0.02908107332968523       553.7855404300491
0.029271675120989875      554.218656398452
0.02947444870561504       554.694145842398
0.029676444997652693      555.1804111652428
0.02987792143862772       555.6774523669867
0.030079137465411736      556.1852694476294
0.030280353522169904      556.7038624071711
0.030481830052951155      557.2332312456116
0.030683826494280624      557.7733759629511
0.030886600287113104      558.3242965591895
0.03108937405397396       558.8655819372624
0.03129137046962597       559.4010119874005
0.03149284697492751       559.9305867096035
0.03169406300630604       560.4543061038718
0.03189527900771217       560.972170170205
0.03209675542321274       561.4841789086034
0.03229875168958166       561.9903323190669
0.03250152524824737       562.4906304015955
0.03269212537051706       562.8936201912859
0.03288207855170127       563.2742976946622
0.033071599207635916      563.6326629117244
0.033260903223866156      563.9687158424726
0.033450207227117564      564.2824564869067
0.033639727844160215      564.5738848450267
0.03382968096067204       564.8430009168326
0.034020280992707694      565.0898047023244
0.034180569669686675      565.2658399779194
0.03434047166984347       565.4303074013152
0.0345001153779836        565.5832069725113
0.03465962980257096       565.7245386915081
0.03481914426574675       565.8543025583054
0.034978788089558385      565.9724985729033
0.03513869028218957       566.0791267353017
0.035298979227982585      566.1741870455007
