% Model:              brazing.mph
% Version:            COMSOL 5.3.0.223
% Date:               Oct 24 2018, 03:05
% Dimension:          1
% Nodes:              225
% Expressions:        1
% Description:        Line graph
% x                       Height
0                         708.380441258514
2.3022181212578358E-4     708.2251682710346
4.5999325066962656E-4     708.0353785803928
6.894940081029028E-4      707.8110721865888
9.189044129547812E-4      707.5522490896226
0.001148405006736289      707.2589092894947
0.0013781761183620641     706.931052786204
0.001608397441069865      706.5686795797513
0.001839314118928521      705.8100690377829
0.0020697760201574002     705.0492089840042
0.002299964597801726      704.2860994184148
0.0025300619515304015     703.5207403410151
0.0027602503975112853     702.7531317518054
0.0029907120357255193     701.9832736507847
0.003221628319839081      701.211166037954
0.0034518885683530987     700.2230037489435
0.0036816980188178403     699.2229222448206
0.003911236592567028      698.2109215255849
0.004140684848157368      697.1870015912365
0.004370223557282477      696.1511624417758
0.004600033278179856      695.103404077202
0.004830293931548535      694.0437264975158
0.005060048526376791      692.7938104437259
0.005289355629682316      691.5551725949908
0.005518393850920054      690.3278129513102
0.005747342428834         689.1117315126844
0.00597638081262499       687.9069282791136
0.006205688240655705      686.7134032505971
0.006435443321622868      685.5311564271357
0.006665339619110656      684.2672818177442
0.006894787442849326      683.024985212086
0.007123965728649401      681.8042666101613
0.007353054043912613      680.6051260119702
0.007582232167524012      679.4275634175128
0.007811679667266285      678.2715788267886
0.008041575479707366      677.1371722397981
0.008271887219609135      675.9972049507347
0.008501747728772392      674.8968273344998
0.008731337046705121      673.8360393910932
0.008960835851156599      672.814841120515
0.009190425033567954      671.8332325227657
0.009420285272008154      670.8912135978444
0.009650596606620833      669.9887843457517
0.009881512912836019      669.1181502937437
0.010111974573021956      668.3030206977132
0.010342163040896366      667.5433955576598
0.010572260416492441      666.8392748735833
0.010802449016030204      666.1906586454845
0.011032910939230619      665.5975468733624
0.011263827639190652      665.0599395572177
0.011494048967061755      664.5516235366849
0.011723820083820682      664.1265024014352
0.011953320682717213      663.7845761514684
0.012182731092678062      663.5258447867848
0.012412231855226382      663.3503083073846
0.012642003298903411      663.2579667132669
0.012872225116192546      663.2488200044327
0.013102446994778118      663.0945501542374
0.013332218499393473      663.0449266689103
0.01356171932266464       663.0999495484511
0.013791129793276359      663.2596187928604
0.01402063045289555       663.523934402138
0.014250401630592404      663.8928963762835
0.014480623019759359      664.3665047152974
0.014711539835704642      664.6742511179225
0.014942001874208778      665.070817882887
0.015172190588640395      665.5562050101912
0.01540228807899374       666.1304124998348
0.015632476661762654      666.7934403518184
0.015862938437253588      667.545288566141
0.01609385485945594       668.3859571428036
0.016324115336228646      669.1463046164153
0.016553925013622208      669.950072417355
0.016783463813500554      670.7972605456233
0.017012912294953733      671.68786900122
0.01724245123020976       672.6218977841452
0.01747226117803945       673.5993468943983
0.017702522059672054      674.6202163319801
0.017932276794613372      675.6461512960432
0.018161584037218948      676.6996585655825
0.018390622397267263      677.780738140598
0.018619571113827754      678.8893900210902
0.018848609636427344      680.0256142070589
0.019077917203754128      681.1894106985037
0.019307672424828403      682.3807794954251
0.019537568573699274      683.476348901406
0.01976701624968263       684.5865848351083
0.019996194388245302      685.7114872965319
0.020225282556443316      686.851056285677
0.020454460532815345      688.0052918025439
0.02068390788479834       689.1741938471318
0.020913803548616574      690.3577624194414
0.02114411498977932       691.3269722188168
0.021373975201947604      692.3065040317421
0.02160356422393484       693.2963578582172
0.02183306273279162       694.2965336982422
0.02206265161925901       695.3070315518178
0.02229251156070728       696.3278514189427
0.02252282259658549       697.358993299618
0.022753738766914562      698.0592680647894
0.022984200292012823      698.7564902914706
0.023214388625279938      699.4506599796615
0.023444485866429166      700.1417771293621
0.023674674331359946      700.8298417405729
0.023905136119473275      701.514853813293
0.024136052683548088      702.1968133475232
0.024366274021741702      702.4767193000841
0.024596045148762867      702.7518147257817
0.024825545757885373      703.0220996246157
0.02505495617806012       703.2875739965867
0.02528445695083446       703.5482378416945
0.025514228404773787      703.8040911599385
0.025744450232385536      704.0551339513194
0.025974672267095825      703.9487757457517
0.026204443926923768      703.8143116099557
0.02643394490485871       703.6517415439312
0.02666335552995085       703.4610655476785
0.026892856344233315      703.2422836211977
0.02712262767714175       702.9953957644882
0.02735284922243193       702.7204019775506
0.027583766528201624      702.0401185112113
0.027814229053652367      701.34457363032
0.028044418253299775      700.6337673348763
0.02827451622829193       699.9076996248803
0.028504705296278778      699.1663705003322
0.028735167558720572      698.4097799612315
0.028966084470753738      697.6379280075788
0.029196345605491433      696.6967065182847
0.02942615593701711       695.7197605472219
0.02965569538872289       694.7070900943899
0.029885144521236064      693.6586951597891
0.030114684108324883      692.5745757434196
0.030344494710297387      691.4547318452809
0.030574756249911007      690.2991634653735
0.030804511377321087      689.0451912419517
0.031033819010118435      687.7805387882779
0.031262857758987544      686.5052061043519
0.03149180686390927       685.2191931901741
0.031720845775323685      683.9225000457444
0.031950153732830305      682.6151266710624
0.032179909346355486      681.2970730661286
0.0324098051544111        679.9906382938414
0.032639252491552244      678.6929079462985
0.03286843029245836       677.4038820234997
0.0330975181233935        676.1235605254449
0.03332669576210278       674.8519434521346
0.03355614277523119       673.5890308035681
0.033786038098215655      672.334822579746
0.034016348759356954      671.1334515796182
0.03424620819605658       669.9712299335396
0.034475796445315066      668.8481576415104
0.03470529418235937       667.7642347035304
0.03493488229610333       666.7194611196002
0.035164741462093585      665.7138368897188
0.03539505171796626       664.747362013887
0.035625967353597694      663.8496926702841
0.03585642834714083       663.0153076183994
0.036086616150743635      662.2442068582326
0.03631671286286018       661.5363903897842
0.03654690079812825       660.8918582130543
0.036777362054689705      660.3106103280422
0.03700827808407173       659.7926467347486
0.03723849938140827       659.3348636363842
0.03746827046781093       658.9675813198638
0.03769777103645843       658.690799785187
0.03792718141620601       658.5045190323539
0.0381566821485052        658.4087390613649
0.03838645356182577       658.4034598722194
0.03861667534858004       658.4886814649178
0.038846895274787324      658.4831807462626
0.039076664838430766      658.5877710700045
0.03930616372759302       658.8024524361427
0.03953557226638858       659.1272248446779
0.039765070991905134      659.5620882956104
0.039994840228642616      660.107042788939
0.040225059665450036      660.7620883246647
0.04045597761776665       661.3108593538761
0.04068644078597457       661.949797216684
0.04091663062609736       662.6789019130886
0.041146729240799984      663.4981734430896
0.04137691894925231       664.4076118066876
0.04160738185443156       665.4072170038817
0.04183829941298208       666.4969890346725
0.04206856149768976       667.5402471424815
0.04229837277362926       668.6243359609429
0.04252791316640542       669.7492554900563
0.04275736323887129       670.9150057298219
0.04298690376702529       672.1215866802402
0.04321671531340127       673.3689983413104
0.04344697780296935       674.657240713033
0.043676731016186174      676.0041720118497
0.04390603674591497       677.360859572825
0.04413507359840861       678.7273033959584
0.04436402080919017       680.1035034812503
0.044593057824233256      681.4894598287008
0.04482236387867965       682.8851724383094
0.045052117578024006      684.2906413100765
0.045282012653644836      685.698271187816
0.045511459262636354      687.0874158217799
0.04574063633797325       688.4580752119684
0.04596972344420469       689.8102493583813
0.046198900357357554      691.1439382610188
0.046428346642361965      692.4591419198805
0.04665824123294997       693.7558603349668
0.04688855484177433       694.9599543863214
0.04711841720894409       696.1367443728847
0.04734800837831597       697.286230294656
0.04757750903201372       698.4084121516357
0.047807100065861544      699.503289943824
0.04803696216230292       700.5708636712203
0.04826727536583021       701.611133333825
0.048498193048686675      702.4350624794492
0.048728656077441146      703.2268030329379
0.04895884590902903       703.9863549942911
0.04918894464672031       704.7137183635089
0.04941913460997818       705.4088931405913
0.04964959790176041       706.0718793255379
0.04988051597838159       706.7026769183493
0.05011073543954296       706.9964674439559
0.0503405047004922        707.2722213343682
0.05057000345013497       707.5299385895858
0.05079941201302823       707.7696192096093
0.05102891092631677       707.9912631944387
0.05125868051417213       708.1948705440734
0.051488900464733596      708.380441258514
