% Model:              brazing.mph
% Version:            COMSOL 5.3.0.223
% Date:               Oct 24 2018, 00:46
% Dimension:          1
% Nodes:              193
% Expressions:        1
% Description:        Line graph
% x                       Height
0                         610.1219441956149
1.6028433640637486E-4     610.1955369972081
3.201839556876346E-4      610.2624473398063
4.7982673004648776E-4     610.3226752234098
6.393411493738095E-4      610.3762206480183
7.988560137323205E-4      610.423083613632
9.58500122107595E-4       610.4632641202508
0.0011184019611720658     610.4967621678747
0.0012786893978073315     610.5235777565039
0.0014692881782178572     610.5430296312909
0.0016592398034323465     610.5456002234127
0.0018487589083489172     610.5312895328693
0.00203806159906999       610.5000975596607
0.0022273647228667317     610.4520243037869
0.0024168851255237504     610.3870697652477
0.002606838908709185      610.3052339440433
0.0027974407000143733     610.2065168401737
0.003000214284638094      610.0819911913798
0.0032022105766743216     609.9417432113803
0.003403687017647933      609.7857729001753
0.0036049030444305387     609.6140802577647
0.0038061191011872996     609.4266652841486
0.004007595631967136      609.2235279793268
0.00420959207329518       609.0046683432996
0.00441236586612622       608.7700863760667
0.004615139632985625      608.502419328845
0.004817136048636202      608.2313748929201
0.005018612553936322      607.9569530682917
0.005219828585313435      607.67915385496
0.005421044586718146      607.3979772529249
0.0056225210022172924     607.1134232621865
0.005824517268584787      606.8254918827449
0.006027290827249049      606.5341831145998
0.006217890949519272      606.2310880875726
0.006407844130704021      605.9466770097268
0.0065973647866391935     605.6809498810627
0.00678666880286996       605.43390670158
0.006975972806121895      605.2055474712787
0.007165493423165078      604.9958721901589
0.007355446539677438      604.8048808582207
0.007546046571713631      604.6325734754639
0.00770633524869351       604.5041279592971
0.007866237248851195      604.3936892290911
0.008025880956992212      604.3012572848462
0.008185395381580456      604.2268321265622
0.008344909844757132      604.1704137542391
0.008504553668569658      604.1320021678771
0.008664455861201733      604.111597367476
0.008824744806995652      604.1091993530358
0.008985029143401957      604.1272341349681
0.009144928762683142      604.1673708743143
0.009304571537041926      604.2296095710745
0.009464085956369179      604.3139502252485
0.00962360082072762       604.4203928368364
0.009783244929102828      604.5489374058382
0.009943146768167231      604.699583932254
0.010103434204802428      604.8723324160835
0.010294032985212885      605.0715039884597
0.010483984610427306      605.290904903739
0.01067350371534381       605.5305351619216
0.010862806406064813      605.7903947630076
0.011052109529861487      606.0704837069969
0.011241629932518437      606.3708019938896
0.011431583715703804      606.6913496236855
0.011622185507008923      607.0321265963847
0.011824959091632737      607.3680926961396
0.012026955383669057      607.696623106075
0.012228431824642762      608.0177178261911
0.01242964785142546       608.3313768564877
0.012630863908182311      608.6376001969651
0.012832340438962243      608.936387847623
0.01303433688029038       609.2277398084616
0.013237110673121513      609.5116560794808
0.013439884439981065      609.7663989804959
0.013641880855631786      610.0013960447918
0.013843357360932049      610.2166472723687
0.014044573392309304      610.4121526632264
0.014245789393714157      610.5879122173649
0.014447265809213447      610.7439259347844
0.014649262075581083      610.8801938154847
0.01485203563424549       610.9967158594659
0.015042635756515686      611.0952664722706
0.015232588937700405      611.177031565795
0.015422109593635547      611.2420111400389
0.015611413609866287      611.2902051950025
0.015800717613118194      611.3216137306856
0.01599023823016135       611.3362367470884
0.01618019134667368       611.3340742442107
0.016370791378709844      611.3151262220526
0.016531080055689654      611.272182183338
0.01669098205584727       611.2264976142409
0.016850625763988217      611.1780725147611
0.017010140188576394      611.1269068848986
0.017169654651752998      611.0730007246535
0.017329298475565455      611.0163540340258
0.017489200668197463      610.9569668130154
0.01764948961399131       610.8948390616223
0.01780977395039525       610.7987595612598
0.017969673569674088      610.6910595076023
0.018129316344030533      610.5717389006496
0.01828883076335545       610.4407977404015
0.01844834562771156       610.2982360268583
0.01860798973608443       610.1440537600199
0.018767891575146484      609.9782509398864
0.018928179011779317      609.8008275664575
0.019118777792188433      609.5272268154807
0.019308729417401523      609.2309751410304
0.019498248522316707      608.9120725431067
0.019687551213036395      608.5705190217093
0.019876854336831753      608.2063145768385
0.02006637473948738       607.8194592084941
0.020256328522671414      607.4099529166763
0.020446930313975188      606.9777957013849
0.02064970389860279       606.4566848156987
0.02085170019064286       605.92254333073
0.02105317663162028       605.3753712464788
0.02125439265840668       604.8151685629452
0.021455608715167235      604.241935280129
0.02165708524595088       603.6556713980302
0.021859081687282764      603.056376916649
0.02206185548011769       602.4440518359853
0.022264629246980954      601.832327142888
0.022466625662635346      601.2327744192381
0.022668102167939252      600.6453936650356
0.022869318199320136      600.0701848802805
0.023070534200728618      599.5071480649729
0.023272010616231548      598.9562832191126
0.023474006882602858      598.4175903426998
0.02367678044127098       597.8910694357344
0.02386738056353977       597.3828008633127
0.024057333744723106      596.9091842844853
0.02424685440065687       596.4702196992527
0.024436158416886237      596.0659071076145
0.02462546242013677       595.696246509571
0.024814983037178547      595.361237905122
0.025004936153689494      595.0608812942676
0.025195536185724256      594.7951766770077
0.0253558248627017        594.5672406716685
0.025515726862856965      594.3688080146106
0.025675370570995573      594.199878705834
0.02583488499558142       594.0604527453385
0.02599439945875569       593.9505301331242
0.02615404328256581       593.8701108691911
0.026313945475195465      593.8191949535392
0.026474234420986946      593.7977823861685
0.026634518757392422      593.8010519270482
0.02679441837667279       593.8303748757099
0.026954061151030752      593.8857512321538
0.02711357557035719       593.9671809963797
0.027273090434714816      594.0746641683878
0.027432734543089202      594.208200748178
0.027592636382152785      594.3677907357503
0.02775292381878715       594.5534341311047
0.02794352259919713       594.7859009902323
0.02813347422441108       595.0518923285954
0.028322993329327112      595.3514081461941
0.028512296020047647      595.6844484430283
0.02870159914384385       596.051013219098
0.028891119546500334      596.4511024744035
0.02908107332968523       596.8847162089443
0.029271675120989875      597.3518544227207
0.02947444870561504       597.8646854075345
0.029676444997652693      598.3891374284789
0.02987792143862772       598.9252104855541
0.030079137465411736      599.4729045787601
0.030280353522169904      600.0322197080969
0.030481830052951155      600.6031558735646
0.030683826494280624      601.1857130751629
0.030886600287113104      601.779891312892
0.03108937405397396       602.3609208864247
0.03129137046962597       602.9349011519402
0.03149284697492751       603.5018321094386
0.03169406300630604       604.0617137589201
0.03189527900771217       604.6145461003844
0.03209675542321274       605.1603291338316
0.03229875168958166       605.6990628592619
0.03250152524824737       606.230747276675
0.03269212537051706       606.6645163727702
0.03288207855170127       607.0733132529051
0.033071599207635916      607.4571379170799
0.033260903223866156      607.8159903652944
0.033450207227117564      608.1498705975487
0.033639727844160215      608.4587786138428
0.03382968096067204       608.7427144141767
0.034020280992707694      609.0016779985505
0.034180569669686675      609.1840301059631
0.03434047166984347       609.3542911182959
0.0345001153779836        609.5124610355488
0.03465962980257096       609.6585398577218
0.03481914426574675       609.7925275848149
0.034978788089558385      609.9144242168281
0.03513869028218957       610.0242297537615
0.035298979227982585      610.1219441956149
