% Model:              brazing.mph
% Version:            COMSOL 5.3.0.223
% Date:               Oct 24 2018, 03:33
% Dimension:          1
% Nodes:              193
% Expressions:        1
% Description:        Line graph
% x                       Height
0                         624.5969872165399
1.6028433640637486E-4     624.6788428961182
3.201839556876346E-4      624.7532962032552
4.7982673004648776E-4     624.8203471379505
6.393411493738095E-4      624.8799957002045
7.988560137323205E-4      624.932241890017
9.58500122107595E-4       624.977085707388
0.0011184019611720658     625.0145271523177
0.0012786893978073315     625.0445662248059
0.0014692881782178572     625.0682066183925
0.0016592398034323465     625.0748597197045
0.0018487589083489172     625.0645255287418
0.00203806159906999       625.0372040455044
0.0022273647228667317     624.9928952699923
0.0024168851255237504     624.9315992022056
0.002606838908709185      624.8533158421443
0.0027974407000143733     624.7580451898082
0.003000214284638094      624.6329856219423
0.0032022105766743216     624.4924359356305
0.003403687017647933      624.3363961308729
0.0036049030444305387     624.1648662076693
0.0038061191011872996     623.97784616602
0.004007595631967136      623.7753360059246
0.00420959207329518       623.5573357273834
0.00441236586612622       623.3238453303962
0.004615139632985625      623.0598535444053
0.004817136048636202      622.792307825295
0.005018612553936322      622.5212081730654
0.005219828585313435      622.2465545877162
0.005421044586718146      621.9683470692478
0.0056225210022172924     621.6865856176598
0.005824517268584787      621.4012702329525
0.006027290827249049      621.1124009151258
0.006217890949519272      620.811643234177
0.006407844130704021      620.5293886080717
0.0065973647866391935     620.26563703681
0.00678666880286996       620.0203885203915
0.006975972806121895      619.7936430588167
0.007165493423165078      619.5854006520852
0.007355446539677438      619.3956613001973
0.007546046571713631      619.2244250031529
0.00770633524869351       619.0963783166943
0.007866237248851195      618.9860459242815
0.008025880956992212      618.893427825914
0.008185395381580456      618.8185240215922
0.008344909844757132      618.7613345113159
0.008504553668569658      618.721859295085
0.008664455861201733      618.7000983728998
0.008824744806995652      618.69605174476
0.008985029143401957      618.7115346849512
0.009144928762683142      618.7490592295651
0.009304571537041926      618.8086253786017
0.009464085956369179      618.8902331320612
0.00962360082072762       618.9938824899434
0.009783244929102828      619.1195734522483
0.009943146768167231      619.2673060189761
0.010103434204802428      619.4370801901266
0.010294032985212885      619.6315285696164
0.010483984610427306      619.8459897819433
0.01067350371534381       620.0804638271071
0.010862806406064813      620.334950705108
0.011052109529861487      620.6094504159458
0.011241629932518437      620.9039629596207
0.011431583715703804      621.2184883361325
0.011622185507008923      621.5530265454813
0.011824959091632737      621.8836136247659
0.012026955383669057      622.2066532483983
0.012228431824642762      622.5221454163782
0.01242964785142546       622.8300901287057
0.012630863908182311      623.1304873853809
0.012832340438962243      623.4233371864036
0.01303433688029038       623.708639531774
0.013237110673121513      623.986394421492
0.013439884439981065      624.238657345716
0.013641880855631786      624.471143263485
0.013843357360932049      624.6838521747993
0.014044573392309304      624.8767840796587
0.014245789393714157      625.0499389780633
0.014447265809213447      625.2033168700133
0.014649262075581083      625.3369177555082
0.01485203563424549       625.4507416345485
0.015042635756515686      625.5448250198091
0.015232588937700405      625.6220308167375
0.015422109593635547      625.6823590253338
0.015611413609866287      625.725809645598
0.015800717613118194      625.7523826775302
0.01599023823016135       625.7620781211302
0.01618019134667368       625.7548959763983
0.016370791378709844      625.7308362433342
0.016531080055689654      625.6840509945886
0.01669098205584727       625.6337210535418
0.016850625763988217      625.5798464201939
0.017010140188576394      625.522427094545
0.017169654651752998      625.4614630765952
0.017329298475565455      625.3969543663444
0.017489200668197463      625.3289009637924
0.01764948961399131       625.2573028689395
0.01780977395039525       625.154272476613
0.017969673569674088      625.0393516914318
0.018129316344030533      624.9125405133963
0.01828883076335545       624.7738389425062
0.01844834562771156       624.6232469787618
0.01860798973608443       624.460764622163
0.018767891575146484      624.2863918727097
0.018928179011779317      624.1001287304019
0.019118777792188433      623.817646775135
0.019308729417401523      623.5127004949281
0.019498248522316707      623.1852898897815
0.019687551213036395      622.835414959695
0.019876854336831753      622.4630757046685
0.02006637473948738       622.0682721247023
0.020256328522671414      621.6510042197963
0.020446930313975188      621.2112719899503
0.02064970389860279       620.6849735697799
0.02085170019064286       620.1457519511523
0.02105317663162028       619.5936071340675
0.02125439265840668       619.0285391185257
0.021455608715167235      618.4505479045267
0.02165708524595088       617.8596334920707
0.021859081687282764      617.2557958811575
0.02206185548011769       616.6390350717872
0.022264629246980954      616.0256809476598
0.022466625662635346      615.4246157089921
0.022668102167939252      614.8358393557843
0.022869318199320136      614.2593518880362
0.023070534200728618      613.6951533057481
0.023272010616231548      613.1432436089199
0.023474006882602858      612.6036227975515
0.02367678044127098       612.0762908716429
0.02386738056353977       611.5678947566694
0.024057333744723106      611.0943571993334
0.02424685440065687       610.655678199635
0.024436158416886237      610.251857757574
0.02462546242013677       609.8828958731506
0.024814983037178547      609.5487925463646
0.025004936153689494      609.249547777216
0.025195536185724256      608.985161565705
0.0253558248627017        608.7575881255833
0.025515726862856965      608.5597718559229
0.025675370570995573      608.3917127567237
0.02583488499558142       608.2534108279856
0.02599439945875569       608.1448660697088
0.02615404328256581       608.066078481893
0.026313945475195465      608.0170480645385
0.026474234420986946      607.9977748176451
0.026634518757392422      608.0028555819284
0.02679441837667279       608.0341541993491
0.026954061151030752      608.091670669907
0.02711357557035719       608.1754049936022
0.027273090434714816      608.2853571704347
0.027432734543089202      608.4215272004046
0.027592636382152785      608.5839150835118
0.02775292381878715       608.7725208197562
0.02794352259919713       609.0074055625065
0.02813347422441108       609.2759384178602
0.028322993329327112      609.5781193858172
0.028512296020047647      609.9139484663776
0.02870159914384385       610.2834256595414
0.028891119546500334      610.6865509653086
0.02908107332968523       611.1233243836792
0.029271675120989875      611.5937459146533
0.02947444870561504       612.1106562713918
0.029676444997652693      612.6391833411906
0.02987792143862772       613.1793271240499
0.030079137465411736      613.7310876199696
0.030280353522169904      614.2944648289497
0.030481830052951155      614.8694587509901
0.030683826494280624      615.456069386091
0.030886600287113104      616.0542967342523
0.03108937405397396       616.6412953687073
0.03129137046962597       617.2219455195881
0.03149284697492751       617.7962471868943
0.03169406300630604       618.3642003706261
0.03189527900771217       618.9258050707836
0.03209675542321274       619.4810612873666
0.03229875168958166       620.0299690203752
0.03250152524824737       620.5725282698095
0.03269212537051706       621.0125049887416
0.03288207855170127       621.4280987994217
0.033071599207635916      621.8193097018496
0.033260903223866156      622.1861376960254
0.033450207227117564      622.528582781949
0.033639727844160215      622.8466449596204
0.03382968096067204       623.1403242290398
0.034020280992707694      623.409620590207
0.034180569669686675      623.6019380411169
0.03434047166984347       623.78171359985
0.0345001153779836        623.9489472664067
0.03465962980257096       624.1036390407866
0.03481914426574675       624.2457889229898
0.034978788089558385      624.3753969130165
0.03513869028218957       624.4924630108666
0.035298979227982585      624.5969872165399
