% Model:              brazing.mph
% Version:            COMSOL 5.3.0.223
% Date:               Oct 24 2018, 05:07
% Dimension:          1
% Nodes:              145
% Expressions:        1
% Description:        Line graph
% x                       Height
0                         692.0103581601362
1.8037553861809572E-4     692.2725397702283
3.5951128344368776E-4     692.4805630617243
5.377561773732229E-4      692.6344280346251
7.154644111300318E-4      692.7341346889301
8.929933875627798E-4      692.7796830246393
0.0010707015910786408     692.7710730417529
0.0012489464247083767     692.7083047402707
0.0014280820795340731     692.591378120193
0.0016084574989771061     692.4202931815195
0.0017793134314883058     692.3544148939399
0.0019491114898538484     692.263782248473
0.002118149876008701      692.148395245119
0.0022867308232763497     692.0082538838778
0.002455159027530182      691.8433581647495
0.0026237400128558564     691.653708087734
0.0027927784749207734     691.4393036528311
0.0029625766466419693     691.2001448600411
0.0031334327293582195     690.9362317093642
0.0033042867504275058     690.7647456522117
0.0034740828875811486     690.5876471910109
0.0036431193341009516     690.4049363257619
0.0038116983146850476     690.2166130564648
0.003980124516686077      690.0226773831192
0.004148703455848711      689.8231293057255
0.004317739819749776      689.6179688242836
0.004487535833529769      689.4071959387932
0.004658389691119368      689.1908106492549
0.0048387629974717405     689.0711103517164
0.005017896580971026      688.9550530465435
0.005196139373513023      688.842638733737
0.0053738455543625        688.7338674132961
0.005551372514551955      688.6287390852212
0.005729078726427549      688.5272537495123
0.005907321580834967      688.4294114061692
0.006086455256670912      688.3352120551918
0.006266828685292636      688.2446556965807
0.0064472042239161545     688.3924134977389
0.0066263399687470585     688.5472096102409
0.00680458486268183       688.7090440340871
0.0069822930964438265     688.8779167692775
0.007159822072881748      689.0538278158119
0.007337530276402798      689.2367771736904
0.007515775110037768      689.4267648429131
0.007694910764868775      689.6237908234798
0.007875286184317232      689.8278551153905
0.008046142116827224      690.0923531869716
0.008215940175191578      690.3480023278119
0.008384978561345261      690.5948025379117
0.008553559508611747      690.8327538172708
0.008721987712864422      691.0618561658893
0.008890568698188937      691.2821095837671
0.00905960716025268       691.4935140709042
0.009229405331972688      691.6960696273005
0.009400261414687729      691.8897762529565
0.009571115435747398      692.20394504632
0.009740911572891598      692.4885279513458
0.009909948019402086      692.7435249680341
0.010078526999976944      692.9689360963849
0.010246953201968763      693.1647613363981
0.010415532141122159      693.3310006880738
0.010584568505013912      693.4676541514118
0.010754364518784467      693.5747217264121
0.010925218376364454      693.6522034130751
0.011105591682722255      693.8101772195054
0.01128472526622686       693.9225299407441
0.011462968058774099      693.9892615767917
0.011640674239628768      694.010372127648
0.011818201199823401      693.9858615933127
0.01199590741170419       693.9157299737861
0.012174150266116847      693.7999772690684
0.012353283941958112      693.6386034791592
0.012533657370585264      693.4316086040586
0.01271403176453574       693.4043285329342
0.012893166387683227      693.3231889850897
0.013071410176518557      693.1881899605255
0.013249117315197753      692.9993314592415
0.013426645199902413      692.7566134812375
0.013604352308338922      692.4600360265138
0.01378259603687098       692.1095990950698
0.013961730570013379      691.7053026869063
0.014142104844781908      691.2471468020227
0.014312959944399205      690.8601601419489
0.014482757184992078      690.449205905428
0.014651794764271453      690.0142840924608
0.014820374911240972      689.5553947030468
0.014988802317395246      689.0725377371862
0.01515738250242126       688.5657131948789
0.015326420157607648      688.034921076125
0.015496217511551624      687.4801613809241
0.015667072761367945      686.9014341092768
0.01583792791479403       686.4051147180921
0.016007725163749622      685.9157823780837
0.01617676270725794       685.4334370892522
0.01634534277588875       684.9580788515968
0.016513770062946447      684.489707665118
0.01668235009015449       684.0283235298157
0.016851387551041475      683.5739264456898
0.017021184676619543      683.1265164127407
0.017192039666560827      682.6860934309677
0.017372413817338207      682.3270054997852
0.017551548228302124      681.9920578633382
0.017729791836073705      681.6812505216275
0.017907498824762332      681.3945834746526
0.018085026590318725      681.1320567224136
0.018262733610032132      680.8936702649105
0.018440977279666457      680.6794241021433
0.018620111782963036      680.489318234112
0.018800486056004474      680.3233526608168
0.018980860449944497      680.4161077495427
0.019159995073081745      680.5385685292902
0.019338238861906984      680.6907350000592
0.01951594600057618       680.87260716185
0.019693473885270874      681.0841850146624
0.019871180993697383      681.3254685584964
0.020049424722219357      681.5964577933521
0.02022855925535152       681.8971527192293
0.0204089335301096        682.2275533361282
0.02057978862980686       682.6209126568037
0.020749585870478253      683.0160123014391
0.020918623449835097      683.4128522700347
0.021087203596881453      683.8114325625903
0.021255631003112355      684.2117531791058
0.021424211188215206      684.6138141195814
0.021593248843479067      685.0176153840168
0.021763046197501558      685.4231569724125
0.02193390144739785       685.8304388847681
0.022104756600747556      686.3875862356696
0.02227455384962815       686.9188615976042
0.02244359139306247       687.4242649705723
0.022612171461619885      687.9037963545737
0.022780598748604386      688.3574557496083
0.022949178775739036      688.7852431556763
0.02311821623655202       689.1871585727777
0.023288013362055097      689.5632020009123
0.023458868351919994      689.9133734400802
0.02363924250270423       690.3325543916611
0.023818376913674867      690.7051896809037
0.023996620521453065      691.0312793078084
0.02417432751014825       691.3108232723749
0.02435185527571118       691.5438215746034
0.024529562295431146      691.7302742144938
0.02470780596507209       691.870181192046
0.024886940468375387      691.9635425072602
0.025067314741423676      692.0103581601362
