% Model:              brazing.mph
% Version:            COMSOL 5.3.0.223
% Date:               Oct 24 2018, 04:11
% Dimension:          1
% Nodes:              225
% Expressions:        1
% Description:        Line graph
% x                       Height
0                         670.3272607633304
2.3022181212578358E-4     670.1994051955612
4.5999325066962656E-4     670.0471079305161
6.894940081029028E-4      669.8703689681946
9.189044129547812E-4      669.6691883085969
0.001148405006736289      669.4435659517234
0.0013781761183620641     669.1935018975732
0.001608397441069865      668.9189961461473
0.001839314118928521      668.2491967925231
0.0020697760201574002     667.5859622263075
0.002299964597801726      666.9292924475004
0.0025300619515304015     666.2791874561016
0.0027602503975112853     665.6356472521115
0.0029907120357255193     664.9986718355294
0.003221628319839081      664.3682612063561
0.0034518885683530987     663.5224871408544
0.0036816980188178403     662.6703223289779
0.003911236592567028      661.8117667707271
0.004140684848157368      660.9468204661016
0.004370223557282477      660.075483415102
0.004600033278179856      659.1977556177274
0.004830293931548535      658.3136370739785
0.005060048526376791      657.241456174352
0.005289355629682316      656.1832669754837
0.005518393850920054      655.1390694773731
0.005747342428834         654.1088636800206
0.00597638081262499       653.0926495834262
0.006205688240655705      652.0904271875895
0.006435443321622868      651.102196492511
0.006665339619110656      650.0296404505586
0.006894787442849326      648.9781245794543
0.007123965728649401      647.9476488791975
0.007353054043912613      646.9382133497887
0.007582232167524012      645.949817991228
0.007811679667266285      644.9824628035146
0.008041575479707366      644.0361477866494
0.008271887219609135      643.0790751305752
0.008501747728772392      642.1568818210935
0.008731337046705121      641.2695678582037
0.008960835851156599      640.4171332419064
0.009190425033567954      639.5995779722015
0.009420285272008154      638.8169020490885
0.009650596606620833      638.069105472568
0.009881512912836019      637.3451726501189
0.010111974573021956      636.668669615231
0.010342163040896366      636.0395963679042
0.010572260416492441      635.4579529081385
0.010802449016030204      634.9237392359341
0.011032910939230619      634.4369553512907
0.011263827639190652      633.9976012542086
0.011494048967061755      633.5776341046054
0.011723820083820682      633.2305628526159
0.011953320682717213      632.9563874982401
0.012182731092678062      632.755108041478
0.012412231855226382      632.6267244823301
0.012642003298903411      632.5712368207958
0.012872225116192546      632.5886450568752
0.013102446994778118      632.4559141128217
0.013332218499393473      632.4168583936776
0.01356171932266464       632.4714778994429
0.013791129793276359      632.6197726301176
0.01402063045289555       632.8617425857022
0.014250401630592404      633.1973877661959
0.014480623019759359      633.6267081715993
0.014711539835704642      633.8820835632921
0.014942001874208778      634.2180914198385
0.015172190588640395      634.6347317412386
0.01540228807899374       635.1320045274925
0.015632476661762654      635.7099097786004
0.015862938437253588      636.3684474945617
0.01609385485945594       637.1076176753769
0.016324115336228646      637.7568607314232
0.016553925013622208      638.4446042802401
0.016783463813500554      639.1708483218274
0.017012912294953733      639.935592856185
0.01724245123020976       640.7388378833135
0.01747226117803945       641.580583403212
0.017702522059672054      642.4608294158811
0.017932276794613372      643.3387301320992
0.018161584037218948      644.2428868575423
0.018390622397267263      645.1732995922108
0.018619571113827754      646.1299683361048
0.018848609636427344      647.1128930892241
0.019077917203754128      648.1220738515685
0.019307672424828403      649.1575106231384
0.019537568573699274      650.0944282505826
0.01976701624968263       651.0480928581284
0.019996194388245302      652.0185044457753
0.020225282556443316      653.0056630135239
0.020454460532815345      654.0095685613742
0.02068390788479834       655.0302210893257
0.020913803548616574      656.0676205973788
0.02114411498977932       656.8886781455888
0.021373975201947604      657.7245337766818
0.02160356422393484       658.5751874906578
0.02183306273279162       659.4406392875167
0.02206265161925901       660.3208891672591
0.02229251156070728       661.215937129884
0.02252282259658549       662.1257831753923
0.022753738766914562      662.70177551567
0.022984200292012823      663.2821273849083
0.023214388625279938      663.8668387831071
0.023444485866429166      664.4559097102665
0.023674674331359946      665.0493401663867
0.023905136119473275      665.6471301514671
0.024136052683548088      666.2492796655083
0.024366274021741702      666.4417661769878
0.024596045148762867      666.6390250232126
0.024825545757885373      666.8410562041829
0.02505495617806012       667.0478597198985
0.02528445695083446       667.2594355703596
0.025514228404773787      667.4757837555659
0.025744450232385536      667.6969042755177
0.025974672267095825      667.5505652467568
0.026204443926923768      667.3856959589955
0.02643394490485871       667.2022964122332
0.02666335552995085       667.0003666064704
0.026892856344233315      666.7799065417072
0.02712262767714175       666.5409162179429
0.02735284922243193       666.2833956351783
0.027583766528201624      665.6289239673212
0.027814229053652367      664.9693008790972
0.028044418253299775      664.3045263705058
0.02827451622829193       663.6346004415473
0.028504705296278778      662.959523092222
0.028735167558720572      662.2792943225292
0.028966084470753738      661.5939141324693
0.029196345605491433      660.7483228936537
0.02942615593701711       659.8742027491417
0.02965569538872289       658.9715536989338
0.029885144521236064      658.0403757430298
0.030114684108324883      657.0806688814301
0.030344494710297387      656.0924331141341
0.030574756249911007      655.0756684411422
0.030804511377321087      653.9678986003396
0.031033819010118435      652.8532199286091
0.031262857758987544      651.7316324259501
0.03149180686390927       650.6031360923631
0.031720845775323685      649.467730927848
0.031950153732830305      648.3254169324047
0.032179909346355486      647.1761941060332
0.0324098051544111        646.0386305740311
0.032639252491552244      644.909436482097
0.03286843029245836       643.7886118302308
0.0330975181233935        642.6761566184325
0.03332669576210278       641.5720708467026
0.03355614277523119       640.47635451504
0.033786038098215655      639.3890076234459
0.034016348759356954      638.3513546047561
0.03424620819605658       637.3470717803829
0.034475796445315066      636.3761591503261
0.03470529418235937       635.4386167145858
0.03493488229610333       634.5344444731622
0.035164741462093585      633.6636424260547
0.03539505171796626       632.8262105732639
0.035625967353597694      632.0501081414943
0.03585642834714083       631.327613971763
0.036086616150743635      630.6587280640697
0.03631671286286018       630.0434504184146
0.03654690079812825       629.4817810347981
0.036777362054689705      628.9737199132195
0.03700827808407173       628.5192670536793
0.03723849938140827       628.114600205073
0.03746827046781093       627.7889478544544
0.03769777103645843       627.5423100018231
0.03792718141620601       627.3746866471796
0.0381566821485052        627.2860777905238
0.03838645356182577       627.2764834318551
0.03861667534858004       627.3459035711743
0.038846895274787324      627.3128741885059
0.039076664838430766      627.3786693560563
0.03930616372759302       627.5432890738255
0.03953557226638858       627.8067333418135
0.039765070991905134      628.1690021600203
0.039994840228642616      628.6300955284457
0.040225059665450036      629.1900134470901
0.04045597761776665       629.6282392039494
0.04068644078597457       630.1484378330923
0.04091663062609736       630.7506093345186
0.041146729240799984      631.4347537082284
0.04137691894925231       632.2008709542222
0.04160738185443156       633.048961072499
0.04183829941298208       633.9790240630596
0.04206856149768976       634.8509902701397
0.04229837277362926       635.7589429356391
0.04252791316640542       636.7028820595576
0.04275736323887129       637.6828076418952
0.04298690376702529       638.6987196826525
0.04321671531340127       639.7506181818284
0.04344697780296935       640.8385031394237
0.043676731016186174      641.9814700685107
0.04390603674591497       643.1339726027674
0.04413507359840861       644.2960107421937
0.04436402080919017       645.4675844867897
0.044593057824233256      646.6486938365558
0.04482236387867965       647.8393387914912
0.045052117578024006      649.0395193515966
0.045282012653644836      650.2449589759482
0.045511459262636354      651.4370860464852
0.04574063633797325       652.6159005632077
0.04596972344420469       653.7814025261156
0.046198900357357554      654.933591935209
0.046428346642361965      656.0724687904876
0.04665824123294997       657.1980330919517
0.04688855484177433       658.2370018889345
0.04711841720894409       659.2571425784283
0.04734800837831597       660.2584551604331
0.04757750903201372       661.2409396349493
0.047807100065861544      662.204596001977
0.04803696216230292       663.1494242615156
0.04826727536583021       664.0754244135655
0.048498193048686675      664.7906301095783
0.048728656077441146      665.4853914800532
0.04895884590902903       666.1597085249898
0.04918894464672031       666.8135812443886
0.04941913460997818       667.4470096382498
0.04964959790176041       668.0599937065725
0.04988051597838159       668.6525334493576
0.05011073543954296       668.9120432984325
0.0503405047004922        669.1647987841955
0.05057000345013497       669.4107999066463
0.05079941201302823       669.6500466657852
0.05102891092631677       669.8825390616125
0.05125868051417213       670.1082770941273
0.051488900464733596      670.3272607633304
