% Model:              brazing.mph
% Version:            COMSOL 5.3.0.223
% Date:               Oct 24 2018, 04:01
% Dimension:          1
% Nodes:              225
% Expressions:        1
% Description:        Line graph
% x                       Height
0                         696.2764302800634
2.3022181212578358E-4     696.1233527834039
4.5999325066962656E-4     695.9469032522325
6.894940081029028E-4      695.74708168655
9.189044129547812E-4      695.5238880863557
0.001148405006736289      695.2773224516503
0.0013781761183620641     695.0073847824331
0.001608397441069865      694.7140750787046
0.001839314118928521      693.9961248708482
0.0020697760201574002     693.2849855763619
0.002299964597801726      692.5806571952453
0.0025300619515304015     691.8831397274985
0.0027602503975112853     691.1924331731218
0.0029907120357255193     690.5085375321147
0.003221628319839081      689.8314528044777
0.0034518885683530987     688.9277271509368
0.0036816980188178403     688.0142422668242
0.003911236592567028      687.0909981521397
0.004140684848157368      686.1579948068835
0.004370223557282477      685.2152322310558
0.004600033278179856      684.262710424656
0.004830293931548535      683.3004293876846
0.005060048526376791      682.1563554512942
0.005289355629682316      681.0241375322285
0.005518393850920054      679.9037756304865
0.005747342428834         678.795269746069
0.00597638081262499       677.6986198789762
0.006205688240655705      676.6138260292072
0.006435443321622868      675.5408881967628
0.006665339619110656      674.3914991913439
0.006894787442849326      673.2617485441423
0.007123965728649401      672.1516362551574
0.007353054043912613      671.0611623243897
0.007582232167524012      669.9903267518395
0.007811679667266285      668.939129537506
0.008041575479707366      667.9075706813898
0.008271887219609135      666.8734677688315
0.008501747728772392      665.8747952959094
0.008731337046705121      664.911553262623
0.008960835851156599      663.9837416689728
0.009190425033567954      663.091360514959
0.009420285272008154      662.2344098005809
0.009650596606620833      661.412889525839
0.009881512912836019      660.6224057376658
0.010111974573021956      659.8813929579585
0.010342163040896366      659.1898511867173
0.010572260416492441      658.5477804239423
0.010802449016030204      657.9551806696335
0.011032910939230619      657.4120519237906
0.011263827639190652      656.9183941864139
0.011494048967061755      656.4481748639241
0.011723820083820682      656.0559958560453
0.011953320682717213      655.7418571627774
0.012182731092678062      655.5057587841204
0.012412231855226382      655.3477007200747
0.012642003298903411      655.2676829706398
0.012872225116192546      655.265705535816
0.013102446994778118      655.0943983216747
0.013332218499393473      655.0248251089587
0.01356171932266464       655.0569858976676
0.013791129793276359      655.1908806878015
0.01402063045289555       655.4265094793608
0.014250401630592404      655.7638722723449
0.014480623019759359      656.2029690667542
0.014711539835704642      656.4488313589331
0.014942001874208778      656.7816527118162
0.015172190588640395      657.2014331254034
0.01540228807899374       657.7081725996948
0.015632476661762654      658.3018711346907
0.015862938437253588      658.9825287303905
0.01609385485945594       659.7501453867948
0.016324115336228646      660.4215021178383
0.016553925013622208      661.1329809476342
0.016783463813500554      661.8845818761826
0.017012912294953733      662.6763049034834
0.01724245123020976       663.5081500295369
0.01747226117803945       664.3801172543424
0.017702522059672054      665.2922065779006
0.017932276794613372      666.2116323384054
0.018161584037218948      667.1571708665222
0.018390622397267263      668.1288221622507
0.018619571113827754      669.1265862255913
0.018848609636427344      670.1504630565441
0.019077917203754128      671.2004526551086
0.019307672424828403      672.2765550212853
0.019537568573699274      673.263556125737
0.01976701624968263       674.2656806621119
0.019996194388245302      675.2829286304105
0.020225282556443316      676.3153000306323
0.020454460532815345      677.3627948627778
0.02068390788479834       678.4254131268465
0.020913803548616574      679.5031548228387
0.02114411498977932       680.3718591155616
0.021373975201947604      681.2534187733496
0.02160356422393484       682.1478337962026
0.02183306273279162       683.0551041841208
0.02206265161925901       683.9752299371046
0.02229251156070728       684.9082110551532
0.02252282259658549       685.8540475382671
0.022753738766914562      686.4703117307821
0.022984200292012823      687.08823634896
0.023214388625279938      687.7078213928002
0.023444485866429166      688.3290668623032
0.023674674331359946      688.9519727574692
0.023905136119473275      689.5765390782974
0.024136052683548088      690.2027658247886
0.024366274021741702      690.418952028336
0.024596045148762867      690.6393805479681
0.024825545757885373      690.8640513836847
0.02505495617806012       691.092964535486
0.02528445695083446       691.326120003372
0.025514228404773787      691.5635177873423
0.025744450232385536      691.8051578873974
0.025974672267095825      691.6493618225104
0.026204443926923768      691.4779089589247
0.02643394490485871       691.2907992966403
0.02666335552995085       691.0880328356576
0.026892856344233315      690.8696095759767
0.02712262767714175       690.6355295175968
0.02735284922243193       690.3857926605185
0.027583766528201624      689.704036047439
0.027814229053652367      689.0189941866851
0.028044418253299775      688.330667078257
0.02827451622829193       687.6390547221546
0.028504705296278778      686.9441571183781
0.028735167558720572      686.2459742669271
0.028966084470753738      685.5445061678021
0.029196345605491433      684.6647018620765
0.02942615593701711       683.754415141574
0.02965569538872289       682.813646006295
0.029885144521236064      681.8423944562392
0.030114684108324883      680.8406604914071
0.030344494710297387      679.8084441117979
0.030574756249911007      678.7457453174123
0.030804511377321087      677.5965453121756
0.031033819010118435      676.4385931014858
0.031262857758987544      675.2718886853435
0.03149180686390927       674.0964320637479
0.031720845775323685      672.9122232366998
0.031950153732830305      671.7192622041985
0.032179909346355486      670.5175489662445
0.0324098051544111        669.3368159243711
0.032639252491552244      668.1635209884231
0.03286843029245836       666.9976641584005
0.0330975181233935        665.8392454343033
0.03332669576210278       664.6882648161317
0.03355614277523119       663.5447223038852
0.033786038098215655      662.4086178975643
0.034016348759356954      661.3314094697865
0.03424620819605658       660.2888556088799
0.034475796445315066      659.2809563148444
0.03470529418235937       658.3077115876798
0.03493488229610333       657.3691214273869
0.035164741462093585      656.4651858339646
0.03539505171796626       655.5959048074136
0.035625967353597694      654.7957808466289
0.03585642834714083       654.0521301987375
0.036086616150743635      653.3649528637395
0.03631671286286018       652.7342488416349
0.03654690079812825       652.1600181324239
0.036777362054689705      651.642260736106
0.03700827808407173       651.1809766526817
0.03723849938140827       650.7743548302367
0.03746827046781093       650.4520373913331
0.03769777103645843       650.2140243359705
0.03792718141620601       650.0603156641491
0.0381566821485052        649.9909113758691
0.03838645356182577       650.00581147113
0.03861667534858004       650.1050159499322
0.038846895274787324      650.0885796651498
0.039076664838430766      650.1783146053135
0.03930616372759302       650.3742207704232
0.03953557226638858       650.6762981604788
0.039765070991905134      651.0845467754808
0.039994840228642616      651.5989666154284
0.040225059665450036      652.219557680322
0.04045597761776665       652.7052500939948
0.04068644078597457       653.2783572536903
0.04091663062609736       653.9388791594088
0.041146729240799984      654.6868158111503
0.04137691894925231       655.5221672089149
0.04160738185443156       656.444933352702
0.04183829941298208       657.4551142425124
0.04206856149768976       658.4035220185714
0.04229837277362926       659.3889008945885
0.04252791316640542       660.411250870564
0.04275736323887129       661.4705719464979
0.04298690376702529       662.5668641223904
0.04321671531340127       663.7001273982409
0.04344697780296935       664.8703617740499
0.043676731016186174      666.1028838664863
0.04390603674591497       667.3437621513683
0.04413507359840861       668.5929966286953
0.04436402080919017       669.8505872984679
0.044593057824233256      671.1165341606862
0.04482236387867965       672.3908372153494
0.045052117578024006      673.6734964624583
0.045282012653644836      674.9685461612062
0.045511459262636354      676.246899304584
0.04574063633797325       677.5085558925912
0.04596972344420469       678.7535159252282
0.046198900357357554      679.9817794024952
0.046428346642361965      681.1933463243918
0.04665824123294997       682.3882166909182
0.04688855484177433       683.5011716427863
0.04711841720894409       684.5911494834205
0.04734800837831597       685.6581502128204
0.04757750903201372       686.7021738309863
0.047807100065861544      687.7232203379184
0.04803696216230292       688.7212897336161
0.04826727536583021       689.69638201808
0.048498193048686675      690.4627754347587
0.048728656077441146      691.2037260467183
0.04895884590902903       691.9192338539596
0.04918894464672031       692.609298856482
0.04941913460997818       693.2739210542862
0.04964959790176041       693.9131004473714
0.04988051597838159       694.5268370357384
0.05011073543954296       694.8048593416223
0.0503405047004922        695.0735215095601
0.05057000345013497       695.3328235395522
0.05079941201302823       695.5827654315987
0.05102891092631677       695.8233471856996
0.05125868051417213       696.0545688018543
0.051488900464733596      696.2764302800634
