% Model:              brazing.mph
% Version:            COMSOL 5.3.0.223
% Date:               Oct 24 2018, 04:34
% Dimension:          1
% Nodes:              225
% Expressions:        1
% Description:        Line graph
% x                       Height
0                         699.2132542494577
2.3022181212578358E-4     699.0592560542201
4.5999325066962656E-4     698.8800213426765
6.894940081029028E-4      698.675550114827
9.189044129547812E-4      698.4458423706717
0.001148405006736289      698.1908981102108
0.0013781761183620641     697.9107173334437
0.001608397441069865      697.6053000403709
0.001839314118928521      696.8792206095511
0.0020697760201574002     696.1583471566278
0.002299964597801726      695.4426796816
0.0025300619515304015     694.7322181844686
0.0027602503975112853     694.0269626652334
0.0029907120357255193     693.326913123894
0.003221628319839081      692.6320695604509
0.0034518885683530987     691.7121537549007
0.0036816980188178403     690.7820705033882
0.003911236592567028      689.8418198059129
0.004140684848157368      688.8914016624751
0.004370223557282477      687.930816073075
0.004600033278179856      686.9600630377118
0.004830293931548535      685.9791425563864
0.005060048526376791      684.8147713880869
0.005289355629682316      683.6620775656788
0.005518393850920054      682.521061089162
0.005747342428834         681.3917219585364
0.00597638081262499       680.2740601738024
0.006205688240655705      679.1680757349592
0.006435443321622868      678.0737686420074
0.006665339619110656      676.9021056036053
0.006894787442849326      675.750321319771
0.007123965728649401      674.6184157905045
0.007353054043912613      673.506389015806
0.007582232167524012      672.4142409956756
0.007811679667266285      671.3419717301127
0.008041575479707366      670.289581219118
0.008271887219609135      669.2340667505329
0.008501747728772392      668.2146242624576
0.008731337046705121      667.2312537548922
0.008960835851156599      666.2839552278369
0.009190425033567954      665.372728681292
0.009420285272008154      664.4975741152564
0.009650596606620833      663.658491529731
0.009881512912836019      662.8504833105483
0.010111974573021956      662.0929181669214
0.010342163040896366      661.3857960988502
0.010572260416492441      660.7291171063349
0.010802449016030204      660.1228811893756
0.011032910939230619      659.5670883479718
0.011263827639190652      659.061738582124
0.011494048967061755      658.58080325949
0.011723820083820682      658.1787304276827
0.011953320682717213      657.8555200867021
0.012182731092678062      657.6111722365486
0.012412231855226382      657.445686877222
0.012642003298903411      657.359064008722
0.012872225116192546      657.3513036310492
0.013102446994778118      657.1787055578566
0.013332218499393473      657.1082407956684
0.01356171932266464       657.1399093444852
0.013791129793276359      657.2737112043066
0.01402063045289555       657.509646375133
0.014250401630592404      657.8477148569638
0.014480623019759359      658.2879166497994
0.014711539835704642      658.5401643281257
0.014942001874208778      658.8795966262877
0.015172190588640395      659.3062135442855
0.01540228807899374       659.8200150821191
0.015632476661762654      660.4210012397889
0.015862938437253588      661.1091720172942
0.01609385485945594       661.8845274146356
0.016324115336228646      662.5668392788925
0.016553925013622208      663.2898573765984
0.016783463813500554      664.0535817077533
0.017012912294953733      664.8580122723574
0.01724245123020976       665.7031490704109
0.01747226117803945       666.5889921019132
0.017702522059672054      667.5155413668648
0.017932276794613372      668.4492314718764
0.018161584037218948      669.4093378580352
0.018390622397267263      670.395860525341
0.018619571113827754      671.408799473794
0.018848609636427344      672.4481547033945
0.019077917203754128      673.5139262141415
0.019307672424828403      674.606114006036
0.019537568573699274      675.6082333673356
0.01976701624968263       676.6254817070688
0.019996194388245302      677.6578590252354
0.020225282556443316      678.7053653218354
0.020454460532815345      679.7680005968693
0.02068390788479834       680.8457648503362
0.020913803548616574      681.9386580822369
0.02114411498977932       682.8218495441021
0.021373975201947604      683.7176156672774
0.02160356422393484       684.6259564517633
0.02183306273279162       685.5468718975594
0.02206265161925901       686.4803620046663
0.02229251156070728       687.4264267730831
0.02252282259658549       688.3850662028105
0.022753738766914562      689.014125567956
0.022984200292012823      689.6441598589772
0.023214388625279938      690.2751690758737
0.023444485866429166      690.9071532186459
0.023674674331359946      691.5401122872942
0.023905136119473275      692.1740462818176
0.024136052683548088      692.8089552022168
0.024366274021741702      693.0351782701206
0.024596045148762867      693.2643127835071
0.024825545757885373      693.4963587423762
0.02505495617806012       693.7313161467281
0.02528445695083446       693.9691849965631
0.025514228404773787      694.2099652918804
0.025744450232385536      694.4536570326807
0.025974672267095825      694.305900000133
0.026204443926923768      694.1407240649578
0.02643394490485871       693.9581292271548
0.02666335552995085       693.7581154867244
0.026892856344233315      693.5406828436667
0.02712262767714175       693.3058312979811
0.02735284922243193       693.053560849668
0.027583766528201624      692.3725111463658
0.027814229053652367      691.6864234208864
0.028044418253299775      690.9952976732301
0.02827451622829193       690.2991339033966
0.028504705296278778      689.5979321113864
0.028735167558720572      688.8916922971987
0.028966084470753738      688.1804144608342
0.029196345605491433      687.2919469195917
0.02942615593701711       686.3722859641465
0.02965569538872289       685.4214315944982
0.029885144521236064      684.4393838106472
0.030114684108324883      683.4261426125936
0.030344494710297387      682.3817080003367
0.030574756249911007      681.3060799738772
0.030804511377321087      680.1419791959323
0.031033819010118435      678.9688938649999
0.031262857758987544      677.7868239810803
0.03149180686390927       676.5957695441732
0.031720845775323685      675.395730554279
0.031950153732830305      674.1867070113972
0.032179909346355486      672.9686989155281
0.0324098051544111        671.7703859913614
0.032639252491552244      670.5797649157453
0.03286843029245836       669.3968356886794
0.0330975181233935        668.2215983101644
0.03332669576210278       667.0540527802002
0.03355614277523119       665.8941990987863
0.033786038098215655      664.7420372659232
0.034016348759356954      663.6478571639037
0.03424620819605658       662.5891366991607
0.034475796445315066      661.5658758716937
0.03470529418235937       660.5780746815034
0.03493488229610333       659.6257331285897
0.035164741462093585      658.7088512129518
0.03539505171796626       657.8274289345907
0.035625967353597694      657.0151175790301
0.03585642834714083       656.2604621806304
0.036086616150743635      655.5634627393911
0.03631671286286018       654.9241192553123
0.03654690079812825       654.3424317283948
0.036777362054689705      653.8184001586374
0.03700827808407173       653.3520245460408
0.03723849938140827       652.9413109113623
0.03746827046781093       652.6158624015966
0.03769777103645843       652.3756790167437
0.03792718141620601       652.2207607568034
0.0381566821485052        652.1511076217763
0.03838645356182577       652.1667196116615
0.03861667534858004       652.2675967264597
0.038846895274787324      652.258041850515
0.039076664838430766      652.3550837020728
0.03930616372759302       652.5587222811329
0.03953557226638858       652.8689575876955
0.039765070991905134      653.285789621761
0.039994840228642616      653.8092183833284
0.040225059665450036      654.4392438723986
0.04045597761776665       654.9405129197685
0.04068644078597457       655.5293946686164
0.04091663062609736       656.2058891189424
0.041146729240799984      656.9699962707464
0.04137691894925231       657.8217161240287
0.04160738185443156       658.7610486787888
0.04183829941298208       659.7879939350271
0.04206856149768976       660.756461834902
0.04229837277362926       661.7624538875989
0.04252791316640542       662.8059700931174
0.04275736323887129       663.8870104514575
0.04298690376702529       665.0055749626197
0.04321671531340127       666.1616636266034
0.04344697780296935       667.355276443409
0.043676731016186174      668.6104463869447
0.04390603674591497       669.8741275249067
0.04413507359840861       671.146319857295
0.04436402080919017       672.4270233841097
0.044593057824233256      673.7162381053512
0.04482236387867965       675.0139640210186
0.045052117578024006      676.3202011311128
0.045282012653644836      677.6370428516661
0.045511459262636354      678.9367648823201
0.04574063633797325       680.2193672230743
0.04596972344420469       681.4848498739291
0.046198900357357554      682.7332128348846
0.046428346642361965      683.9644561059401
0.04665824123294997       685.1785796870964
0.04688855484177433       686.3089630086798
0.04711841720894409       687.4155494814019
0.04734800837831597       688.4983391052624
0.04757750903201372       689.5573318802615
0.047807100065861544      690.5925278063994
0.04803696216230292       691.6039268836755
0.04826727536583021       692.5915291120904
0.048498193048686675      693.3691650881073
0.048728656077441146      694.1200921065764
0.04895884590902903       694.8443101674984
0.04918894464672031       695.5418192708727
0.04941913460997818       696.2126194167
0.04964959790176041       696.8567106049795
0.04988051597838159       697.4740928357118
0.05011073543954296       697.7553058309231
0.0503405047004922        698.0255983712426
0.05057000345013497       698.28497045667
0.05079941201302823       698.5334220872049
0.05102891092631677       698.7709532628481
0.05125868051417213       698.9975639835989
0.051488900464733596      699.2132542494577
