% Model:              brazing.mph
% Version:            COMSOL 5.3.0.223
% Date:               Oct 24 2018, 06:36
% Dimension:          1
% Nodes:              145
% Expressions:        1
% Description:        Line graph
% x                       Height
0                         841.7072613640847
1.8037553861809572E-4     841.9639711694889
3.5951128344368776E-4     842.168932175547
5.377561773732229E-4      842.3221443822598
7.154644111300318E-4      842.4236077896268
8.929933875627798E-4      842.4733223976481
0.0010707015910786408     842.471288206324
0.0012489464247083767     842.4175052156539
0.0014280820795340731     842.3119734256385
0.0016084574989771061     842.1546928362771
0.0017793134314883058     842.0993598225494
0.0019491114898538484     842.0207358986289
0.002118149876008701      841.9188210645165
0.0022867308232763497     841.7936153202116
0.002455159027530182      841.6451186657144
0.0026237400128558564     841.4733311010249
0.0027927784749207734     841.2782526261432
0.0029625766466419693     841.0598832410689
0.0031334327293582195     840.8182229458024
0.0033042867504275058     840.6723533456556
0.0034740828875811486     840.5202770954564
0.0036431193341009516     840.3619941952055
0.0038116983146850476     840.1975046449026
0.003980124516686077      840.0268084445476
0.004148703455848711      839.8499055941405
0.004317739819749776      839.6667960936812
0.004487535833529769      839.4774799431699
0.004658389691119368      839.2819571426068
0.0048387629974717405     839.1801423161245
0.005017896580971026      839.0787546727043
0.005196139373513023      838.9777942123466
0.0053738455543625        838.8772609350511
0.005551372514551955      838.7771548408181
0.005729078726427549      838.6774759296471
0.005907321580834967      838.5782242015388
0.006086455256670912      838.4793996564923
0.006266828685292636      838.3810022945084
0.0064472042239161545     838.52328945496
0.0066263399687470585     838.6696831971343
0.00680458486268183       838.8201835210322
0.0069822930964438265     838.9747904266529
0.007159822072881748      839.1335039139966
0.007337530276402798      839.2963239830636
0.007515775110037768      839.4632506338534
0.007694910764868775      839.6342838663662
0.007875286184317232      839.8094236806022
0.008046142116827224      840.0413780984283
0.008215940175191578      840.2640288149936
0.008384978561345261      840.4773758302989
0.008553559508611747      840.6814191443437
0.008721987712864422      840.8761587571281
0.008890568698188937      841.0615946686522
0.00905960716025268       841.2377268789159
0.009229405331972688      841.4045553879188
0.009400261414687729      841.5620801956617
0.009571115435747398      841.8440679220333
0.009740911572891598      842.0984710724798
0.009909948019402086      842.3252896470011
0.010078526999976944      842.5245236455972
0.010246953201968763      842.6961730682684
0.010415532141122159      842.8402379150144
0.010584568505013912      842.9567181858353
0.010754364518784467      843.0456138807309
0.010925218376364454      843.1069249997014
0.011105591682722255      843.2452833584667
0.01128472526622686       843.3415874153492
0.011462968058774099      843.3958371703492
0.011640674239628768      843.4080326234663
0.011818201199823401      843.3781737747005
0.01199590741170419       843.3062606240522
0.012174150266116847      843.1922931715211
0.012353283941958112      843.0362714171071
0.012533657370585264      842.8381953608106
0.01271403176453574       842.8302745634329
0.012893166387683227      842.7720292572357
0.013071410176518557      842.66345944222
0.013249117315197753      842.5045651183851
0.013426645199902413      842.295346285731
0.013604352308338922      842.0358029442579
0.01378259603687098       841.7259350939656
0.013961730570013379      841.3657427348543
0.014142104844781908      840.955225866924
0.014312959944399205      840.6140396341935
0.014482757184992078      840.2507853032988
0.014651794764271453      839.8654628742398
0.014820374911240972      839.4580723470168
0.014988802317395246      839.0286137216295
0.01515738250242126       838.577086998078
0.015326420157607648      838.1034921763622
0.015496217511551624      837.6078292564822
0.015667072761367945      837.0900982384381
0.01583792791479403       836.6598433064165
0.016007725163749622      836.2347714298081
0.01617676270725794       835.8148826086134
0.01634534277588875       835.4001768428317
0.016513770062946447      834.9906541324636
0.01668235009015449       834.5863144775088
0.016851387551041475      834.1871578779673
0.017021184676619543      833.7931843338391
0.017192039666560827      833.4043938451244
0.017372413817338207      833.0950480707965
0.017551548228302124      832.8044882596554
0.017729791836073705      832.5327144117022
0.017907498824762332      832.2797265269361
0.018085026590318725      832.0455246053574
0.018262733610032132      831.8301086469661
0.018440977279666457      831.633478651762
0.018620111782963036      831.4556346197456
0.018800486056004474      831.2965765509163
0.018980860449944497      831.3967984634145
0.019159995073081745      831.5212925614111
0.019338238861906984      831.6700588449065
0.01951594600057618       831.8430973139001
0.019693473885270874      832.0404079683927
0.019871180993697383      832.2619908083833
0.020049424722219357      832.5078458338727
0.02022855925535152       832.7779730448607
0.0204089335301096        833.072372441347
0.02057978862980686       833.4260940545954
0.020749585870478253      833.7790339286702
0.020918623449835097      834.131192063572
0.021087203596881453      834.4825684593005
0.021255631003112355      834.8331631158559
0.021424211188215206      835.1829760332381
0.021593248843479067      835.5320072114467
0.021763046197501558      835.8802566504825
0.02193390144739785       836.2277243503448
0.022104756600747556      836.7322123104724
0.02227455384962815       837.2120948039579
0.02244359139306247       837.6673718308026
0.022612171461619885      838.0980433910057
0.022780598748604386      838.5041094845675
0.022949178775739036      838.8855701114877
0.02311821623655202       839.2424252717664
0.023288013362055097      839.5746749654039
0.023458868351919994      839.8823191923997
0.02363924250270423       840.2583162555667
0.023818376913674867      840.591006891044
0.023996620521453065      840.8803910988323
0.02417432751014825       841.126468878931
0.02435185527571118       841.3292402313406
0.024529562295431146      841.4887051560607
0.02470780596507209       841.6048636530915
0.024886940468375387      841.6777157224327
0.025067314741423676      841.7072613640847
