% Model:              brazing.mph
% Version:            COMSOL 5.3.0.223
% Date:               Oct 24 2018, 00:36
% Dimension:          1
% Nodes:              225
% Expressions:        1
% Description:        Line graph
% x                       Height
0                         705.6985938460421
2.3022181212578358E-4     705.5402241732836
4.5999325066962656E-4     705.357585464134
6.894940081029028E-4      705.1506777185931
9.189044129547812E-4      704.9195009366614
0.001148405006736289      704.6640551183388
0.0013781761183620641     704.3843402636247
0.001608397441069865      704.0803563725198
0.001839314118928521      703.3473244602982
0.0020697760201574002     702.6202474988728
0.002299964597801726      701.8991254882441
0.0025300619515304015     701.1839584284114
0.0027602503975112853     700.4747463193755
0.0029907120357255193     699.7714891611357
0.003221628319839081      699.0741869536924
0.0034518885683530987     698.1481807805085
0.0036816980188178403     697.2113901634073
0.003911236592567028      696.2638151023888
0.004140684848157368      695.3054555974533
0.004370223557282477      694.3363116486007
0.004600033278179856      693.3563832558306
0.004830293931548535      692.3656704191434
0.005060048526376791      691.1935347265052
0.005289355629682316      690.0327273825771
0.005518393850920054      688.8832483873596
0.005747342428834         687.7450977408523
0.00597638081262499       686.6182754430556
0.006205688240655705      685.5027814939689
0.006435443321622868      684.3986158935928
0.006665339619110656      683.2190190173811
0.006894787442849326      682.0589453937538
0.007123965728649401      680.9183950227108
0.007353054043912613      679.7973679042522
0.007582232167524012      678.6958640383783
0.007811679667266285      677.6138834250886
0.008041575479707366      676.5514260643835
0.008271887219609135      675.4878271722439
0.008501747728772392      674.4602146381171
0.008731337046705121      673.4685884620031
0.008960835851156599      672.5129486439021
0.009190425033567954      671.593295183814
0.009420285272008154      670.7096280817383
0.009650596606620833      669.8619473376756
0.009881512912836019      669.0468151573265
0.010111974573021956      668.2822351020787
0.010342163040896366      667.5682071719322
0.010572260416492441      666.904731366887
0.010802449016030204      666.2918076869432
0.011032910939230619      665.7294361321005
0.011263827639190652      665.2176167023594
0.011494048967061755      664.730710271917
0.011723820083820682      664.3234815387901
0.011953320682717213      663.9959305029787
0.012182731092678062      663.7480571644829
0.012412231855226382      663.579861523303
0.012642003298903411      663.4913435794382
0.012872225116192546      663.4825033328891
0.013102446994778118      663.3028280415657
0.013332218499393473      663.226904946231
0.01356171932266464       663.2547340468848
0.013791129793276359      663.3863153435273
0.01402063045289555       663.6216488361587
0.014250401630592404      663.9607345247784
0.014480623019759359      664.4035724093869
0.014711539835704642      664.6521340920638
0.014942001874208778      664.9892189104803
0.015172190588640395      665.4148268646366
0.01540228807899374       665.9289579545326
0.015632476661762654      666.5316121801685
0.015862938437253588      667.2227895415438
0.01609385485945594       668.002490038659
0.016324115336228646      668.6863723801438
0.016553925013622208      669.411092937647
0.016783463813500554      670.1766517111681
0.017012912294953733      670.9830487007076
0.01724245123020976       671.8302839062655
0.01747226117803945       672.7183573278414
0.017702522059672054      673.6472689654357
0.017932276794613372      674.5853947027499
0.018161584037218948      675.5498488979462
0.018390622397267263      676.5406315510246
0.018619571113827754      677.5577426619851
0.018848609636427344      678.601182230828
0.019077917203754128      679.6709502575528
0.019307672424828403      680.7670467421599
0.019537568573699274      681.7754218753618
0.01976701624968263       682.7985643212127
0.019996194388245302      683.8364740797128
0.020225282556443316      684.8891511508621
0.020454460532815345      685.9565955346609
0.02068390788479834       687.0388072311085
0.020913803548616574      688.1357862402057
0.02114411498977932       689.0245949488517
0.021373975201947604      689.9256082225922
0.02160356422393484       690.8388260614274
0.02183306273279162       691.7642484653572
0.02206265161925901       692.7018754343819
0.02229251156070728       693.6517069685008
0.02252282259658549       694.6137430677145
0.022753738766914562      695.2465894377116
0.022984200292012823      695.8800487120326
0.023214388625279938      696.5141208906778
0.023444485866429166      697.1488059736465
0.023674674331359946      697.7841039609397
0.023905136119473275      698.4200148525564
0.024136052683548088      699.0565386484973
0.024366274021741702      699.2831008704941
0.024596045148762867      699.5129622077254
0.024825545757885373      699.7461226601906
0.02505495617806012       699.9825822278906
0.02528445695083446       700.2223409108251
0.025514228404773787      700.4653987089935
0.025744450232385536      700.7117556223965
0.025974672267095825      700.5565410515803
0.026204443926923768      700.3851876924457
0.02643394490485871       700.1976955449925
0.02666335552995085       699.9940646092207
0.026892856344233315      699.7742948851309
0.02712262767714175       699.538386372722
0.02735284922243193       699.2863390719949
0.027583766528201624      698.5965593769414
0.027814229053652367      697.9028789343442
0.028044418253299775      697.2052977442034
0.02827451622829193       696.5038158065189
0.028504705296278778      695.798433121291
0.028735167558720572      695.0891496885192
0.028966084470753738      694.3759655082039
0.029196345605491433      693.481011238779
0.02942615593701711       692.5546610124929
0.02965569538872289       691.5969148293457
0.029885144521236064      690.6077726893374
0.030114684108324883      689.5872345924683
0.030344494710297387      688.5353005387377
0.030574756249911007      687.4519705281461
0.030804511377321087      686.2820513778929
0.031033819010118435      685.102877552583
0.031262857758987544      683.9144490522165
0.03149180686390927       682.716765876793
0.031720845775323685      681.5098280263132
0.031950153732830305      680.2936355007763
0.032179909346355486      679.0681883001829
0.0324098051544111        677.8648701347089
0.032639252491552244      676.669011600688
0.03286843029245836       675.4806126981198
0.0330975181233935        674.2996734270047
0.03332669576210278       673.126193787343
0.03355614277523119       671.9601737791338
0.033786038098215655      670.8016134023779
0.034016348759356954      669.7034254552616
0.03424620819605658       668.6407258264952
0.034475796445315066      667.6135145160788
0.03470529418235937       666.6217915240127
0.03493488229610333       665.6655568502971
0.035164741462093585      664.7448104949311
0.03539505171796626       663.8595524579156
0.035625967353597694      663.0450928892033
0.03585642834714083       662.2885305214797
0.036086616150743635      661.5898653547451
0.03631671286286018       660.9490973889995
0.03654690079812825       660.366226624243
0.036777362054689705      659.841253060475
0.03700827808407173       659.374176697696
0.03723849938140827       658.9634719331117
0.03746827046781093       658.6388599404183
0.03769777103645843       658.400340719616
0.03792718141620601       658.2479142707048
0.0381566821485052        658.1815805936848
0.03838645356182577       658.2013396885553
0.03861667534858004       658.3071915553172
0.038846895274787324      658.2978884392732
0.039076664838430766      658.3966509255911
0.03930616372759302       658.6034790142709
0.03953557226638858       658.9183727053128
0.039765070991905134      659.341331998717
0.039994840228642616      659.8723568944828
0.040225059665450036      660.5114473926109
0.04045597761776665       661.0166596189431
0.04068644078597457       661.6106654285563
0.04091663062609736       662.2934648214507
0.041146729240799984      663.0650577976265
0.04137691894925231       663.9254443570837
0.04160738185443156       664.8746244998216
0.04183829941298208       665.9125982258411
0.04206856149768976       666.8901176576154
0.04229837277362926       667.905212916128
0.04252791316640542       668.9578840013785
0.04275736323887129       670.0481309133675
0.04298690376702529       671.1759536520947
0.04321671531340127       672.3413522175599
0.04344697780296935       673.5443266097634
0.043676731016186174      674.8107813172535
0.04390603674591497       676.085516671887
0.04413507359840861       677.3685326736633
0.04436402080919017       678.6598293225827
0.044593057824233256      679.9594066186455
0.04482236387867965       681.267264561851
0.045052117578024006      682.5834031521998
0.045282012653644836      683.912562628408
0.045511459262636354      685.2241050233662
0.04574063633797325       686.518030337074
0.04596972344420469       687.7943385695316
0.046198900357357554      689.0530297207395
0.046428346642361965      690.2941037906968
0.04665824123294997       691.5175607794041
0.04688855484177433       692.65902569534
0.04711841720894409       693.7761232256911
0.04734800837831597       694.8688533704569
0.04757750903201372       695.9372161296378
0.047807100065861544      696.9812115032338
0.04803696216230292       698.0008394912445
0.04826727536583021       698.9961000936703
0.048498193048686675      699.7821523438917
0.048728656077441146      700.5409479800248
0.04895884590902903       701.2724870020701
0.04918894464672031       701.9767694100273
0.04941913460997818       702.6537952038966
0.04964959790176041       703.3035643836776
0.04988051597838159       703.9260769493708
0.05011073543954296       704.2119412859323
0.0503405047004922        704.486923076815
0.05057000345013497       704.7510223220183
0.05079941201302823       705.0042390215426
0.05102891092631677       705.2465731753883
0.05125868051417213       705.4780247835547
0.051488900464733596      705.6985938460421
