% Model:              brazing.mph
% Version:            COMSOL 5.3.0.223
% Date:               Oct 24 2018, 01:36
% Dimension:          1
% Nodes:              145
% Expressions:        1
% Description:        Line graph
% x                       Height
0                         646.1016530384558
1.8037553861809572E-4     646.366676145879
3.5951128344368776E-4     646.5769109129292
5.377561773732229E-4      646.7323573396069
7.154644111300318E-4      646.8330154259121
8.929933875627798E-4      646.8788851718444
0.0010707015910786408     646.8699665774042
0.0012489464247083767     646.8062596425909
0.0014280820795340731     646.6877643674053
0.0016084574989771061     646.514480751847
0.0017793134314883058     646.446070639923
0.0019491114898538484     646.3524212568615
0.002118149876008701      646.2335326026628
0.0022867308232763497     646.0894046773267
0.002455159027530182      645.9200374808534
0.0026237400128558564     645.7254310132424
0.0027927784749207734     645.5055852744944
0.0029625766466419693     645.2605002646087
0.0031334327293582195     644.9901759835859
0.0033042867504275058     644.8089696334112
0.0034740828875811486     644.6225952818631
0.0036431193341009516     644.4310529289423
0.0038116983146850476     644.2343425746487
0.003980124516686077      644.0324642189819
0.004148703455848711      643.8254178619424
0.004317739819749776      643.6132035035296
0.004487535833529769      643.3958211437439
0.004658389691119368      643.1732707825853
0.0048387629974717405     643.046944396334
0.005017896580971026      642.9259408666298
0.005196139373513023      642.8102601934733
0.0053738455543625        642.6999023768639
0.005551372514551955      642.5948674168018
0.005729078726427549      642.4951553132873
0.005907321580834967      642.4007660663198
0.006086455256670912      642.3116996758997
0.006266828685292636      642.2279561420271
0.0064472042239161545     642.3776796071049
0.0066263399687470585     642.5358896428475
0.00680458486268183       642.702586249255
0.0069822930964438265     642.8777694263275
0.007159822072881748      643.061439174065
0.007337530276402798      643.2535954924673
0.007515775110037768      643.4542383815345
0.007694910764868775      643.6633678412667
0.007875286184317232      643.8809838716638
0.008046142116827224      644.1592589118142
0.008215940175191578      644.4290409452979
0.008384978561345261      644.6903299721153
0.008553559508611747      644.9431259922661
0.008721987712864422      645.1874290057505
0.008890568698188937      645.4232390125685
0.00905960716025268       645.6505560127201
0.009229405331972688      645.8693800062049
0.009400261414687729      646.0797109930236
0.009571115435747398      646.4064204915527
0.009740911572891598      646.7027787397642
0.009909948019402086      646.9687857376585
0.010078526999976944      647.2044414852354
0.010246953201968763      647.4097459824948
0.010415532141122159      647.5846992294368
0.010584568505013912      647.7293012260611
0.010754364518784467      647.8435519723681
0.010925218376364454      647.9274514683577
0.011105591682722255      648.0918795813751
0.01128472526622686       648.2092477354216
0.011462968058774099      648.2795559304976
0.011640674239628768      648.3028041666031
0.011818201199823401      648.2789924437378
0.01199590741170419       648.208120761902
0.012174150266116847      648.0901891210954
0.012353283941958112      647.9251975213182
0.012533657370585264      647.7131459625705
0.01271403176453574       647.6721140821775
0.012893166387683227      647.5760494781763
0.013071410176518557      647.424952150567
0.013249117315197753      647.2188220993498
0.013426645199902413      646.9576593245246
0.013604352308338922      646.6414638260911
0.01378259603687098       646.2702356040497
0.013961730570013379      645.8439746583999
0.014142104844781908      645.3626809891424
0.014312959944399205      644.9526795738341
0.014482757184992078      644.5181442337843
0.014651794764271453      644.0590749689934
0.014820374911240972      643.5754717794614
0.014988802317395246      643.0673346651879
0.01515738250242126       642.5346636261734
0.015326420157607648      641.9774586624176
0.015496217511551624      641.3957197739205
0.015667072761367945      640.7894469606823
0.01583792791479403       640.2617979085518
0.016007725163749622      639.742168239941
0.01617676270725794       639.2305579548503
0.01634534277588875       638.7269670532794
0.016513770062946447      638.2313955352284
0.01668235009015449       637.7438434006975
0.016851387551041475      637.2643106496863
0.017021184676619543      636.7927972821951
0.017192039666560827      636.329303298224
0.017372413817338207      635.9461894464963
0.017551548228302124      635.5898538424807
0.017729791836073705      635.2602964861778
0.017907498824762332      634.9575173775874
0.018085026590318725      634.6815165167092
0.018262733610032132      634.4322939035436
0.018440977279666457      634.2098495380902
0.018620111782963036      634.0141834203494
0.018800486056004474      633.8452955503211
0.018980860449944497      633.931706132649
0.019159995073081745      634.0504539883894
0.019338238861906984      634.201539117543
0.01951594600057618       634.3849615201092
0.019693473885270874      634.6007211960883
0.019871180993697383      634.8488181454802
0.020049424722219357      635.1292523682847
0.02022855925535152       635.4420238645022
0.0204089335301096        635.7871326341325
0.02057978862980686       636.1957440151928
0.020749585870478253      636.6075721895481
0.020918623449835097      637.0226171571991
0.021087203596881453      637.4408789181455
0.021255631003112355      637.8623574723871
0.021424211188215206      638.2870528199242
0.021593248843479067      638.7149649607566
0.021763046197501558      639.1460938948842
0.02193390144739785       639.5804396223074
0.022104756600747556      640.159695299125
0.02227455384962815       640.7129315057197
0.02244359139306247       641.2401482420919
0.022612171461619885      641.7413455082412
0.022780598748604386      642.2165233041678
0.022949178775739036      642.6656816298715
0.02311821623655202       643.0888204853525
0.023288013362055097      643.4859398706109
0.023458868351919994      643.8570397856464
0.02363924250270423       644.2967288436992
0.023818376913674867      644.6888460053722
0.023996620521453065      645.0333912706657
0.02417432751014825       645.3303646395797
0.02435185527571118       645.579766112114
0.024529562295431146      645.7815956882689
0.02470780596507209       645.9358533680441
0.024886940468375387      646.0425391514397
0.025067314741423676      646.1016530384558
