% Model:              brazing.mph
% Version:            COMSOL 5.3.0.223
% Date:               Oct 24 2018, 06:39
% Dimension:          1
% Nodes:              225
% Expressions:        1
% Description:        Line graph
% x                       Height
0                         673.3661990436955
2.3022181212578358E-4     673.227855169081
4.5999325066962656E-4     673.0648481633442
6.894940081029028E-4      672.8771780264848
9.189044129547812E-4      672.664844758503
0.001148405006736289      672.427848359399
0.0013781761183620641     672.1661888291724
0.001608397441069865      671.8798661678236
0.001839314118928521      671.1891327945492
0.0020697760201574002     670.5043849405655
0.002299964597801726      669.8256226058727
0.0025300619515304015     669.1528457904707
0.0027602503975112853     668.4860544943598
0.0029907120357255193     667.8252487175392
0.003221628319839081      667.1704284600097
0.0034518885683530987     666.2973181383165
0.0036816980188178403     665.4163653951266
0.003911236592567028      664.5275702304402
0.004140684848157368      663.6309326442571
0.004370223557282477      662.7264526365778
0.004600033278179856      661.8141302074016
0.004830293931548535      660.8939653567289
0.005060048526376791      659.7878705458728
0.005289355629682316      658.6947524588162
0.005518393850920054      657.6146110955585
0.005747342428834         656.5474464561003
0.00597638081262499       655.4932585404416
0.006205688240655705      654.4520473485818
0.006435443321622868      653.4238128805215
0.006665339619110656      652.3143521820442
0.006894787442849326      651.2253514462717
0.007123965728649401      650.156810673204
0.007353054043912613      649.108729862841
0.007582232167524012      648.0811090151831
0.007811679667266285      647.0739481302297
0.008041575479707366      646.0872472079812
0.008271887219609135      645.0929199955381
0.008501747728772392      644.1338025146347
0.008731337046705121      643.2098947652709
0.008960835851156599      642.321196747447
0.009190425033567954      641.4677084611633
0.009420285272008154      640.6494299064188
0.009650596606620833      639.8663610832145
0.009881512912836019      639.1100580863321
0.010111974573021956      638.4022186956573
0.010342163040896366      637.7428429111903
0.010572260416492441      637.1319307329313
0.010802449016030204      636.5694821608802
0.011032910939230619      636.0554971950367
0.011263827639190652      635.5899758354011
0.011494048967061755      635.1458093504986
0.011723820083820682      634.7767180064415
0.011953320682717213      634.4827018032298
0.012182731092678062      634.2637607408636
0.012412231855226382      634.1198948193431
0.012642003298903411      634.0511040386677
0.012872225116192546      634.057388398838
0.013102446994778118      633.9081516293348
0.013332218499393473      633.8557007528392
0.01356171932266464       633.9000357693511
0.013791129793276359      634.0411566788706
0.01402063045289555       634.279063481398
0.014250401630592404      634.6137561769325
0.014480623019759359      635.0452347654748
0.014711539835704642      635.2977713520102
0.014942001874208778      635.6332786662582
0.015172190588640395      636.0517567082187
0.01540228807899374       636.5532054778917
0.015632476661762654      637.1376249752774
0.015862938437253588      637.8050152003754
0.01609385485945594       638.555376153186
0.016324115336228646      639.2150016500863
0.016553925013622208      639.9139004364124
0.016783463813500554      640.6520725121645
0.017012912294953733      641.4295178773427
0.01724245123020976       642.2462365319471
0.01747226117803945       643.1022284759772
0.017702522059672054      643.9974937094333
0.017932276794613372      644.8943103638737
0.018161584037218948      645.8173074986865
0.018390622397267263      646.7664851138721
0.018619571113827754      647.7418432094302
0.018848609636427344      648.7433817853611
0.019077917203754128      649.7711008416642
0.019307672424828403      650.8250003783402
0.019537568573699274      651.7840650234754
0.01976701624968263       652.7591782074393
0.019996194388245302      653.7503399302315
0.020225282556443316      654.7575501918524
0.020454460532815345      655.7808089923021
0.02068390788479834       656.82011633158
0.020913803548616574      657.8754722096868
0.02114411498977932       658.7178542355692
0.021373975201947604      659.5741794712519
0.02160356422393484       660.4444479167344
0.02183306273279162       661.328659572017
0.02206265161925901       662.2268144371001
0.02229251156070728       663.1389125119829
0.02252282259658549       664.0649537966658
0.022753738766914562      664.659966751446
0.022984200292012823      665.2580418897599
0.023214388625279938      665.8591792116075
0.023444485866429166      666.4633787169887
0.023674674331359946      667.0706404059038
0.023905136119473275      667.6809642783523
0.024136052683548088      668.2943503343347
0.024366274021741702      668.4998372321546
0.024596045148762867      668.7094268560609
0.024825545757885373      668.9231192060533
0.02505495617806012       669.1409142821324
0.02528445695083446       669.3628120842977
0.025514228404773787      669.5888126125492
0.025744450232385536      669.8189158668872
0.025974672267095825      669.6738033718552
0.026204443926923768      669.5107551166079
0.02643394490485871       669.3297711011454
0.02666335552995085       669.1308513254673
0.026892856344233315      668.9139957895744
0.02712262767714175       668.6792044934656
0.02735284922243193       668.4264774371418
0.027583766528201624      667.7647582173898
0.027814229053652367      667.0979554215896
0.028044418253299775      666.4260690497412
0.02827451622829193       665.7490991018442
0.028504705296278778      665.0670455778993
0.028735167558720572      664.3799084779058
0.028966084470753738      663.6876878018641
0.029196345605491433      662.8288360786877
0.02942615593701711       661.940523448798
0.02965569538872289       661.0227499121945
0.029885144521236064      660.0755154688775
0.030114684108324883      659.0988201188475
0.030344494710297387      658.0926638621036
0.030574756249911007      657.0570466986463
0.030804511377321087      655.9314942777715
0.031033819010118435      654.7981622260755
0.031262857758987544      653.6570505435581
0.03149180686390927       652.5081592302192
0.031720845775323685      651.3514882860593
0.031950153732830305      650.1870377110777
0.032179909346355486      649.0148075052749
0.0324098051544111        647.8576323291396
0.032639252491552244      646.7084614246771
0.03286843029245836       645.5672947918877
0.0330975181233935        644.4341324307712
0.03332669576210278       643.3089743413279
0.03355614277523119       642.1918205235573
0.033786038098215655      641.08267097746
0.034016348759356954      640.0264426395378
0.03424620819605658       639.0042978339487
0.034475796445315066      638.0162365606925
0.03470529418235937       637.0622588197695
0.03493488229610333       636.1423646111797
0.035164741462093585      635.2565539349226
0.03539505171796626       634.4048267909989
0.035625967353597694      633.6174585443772
0.03585642834714083       632.8851496642498
0.036086616150743635      632.2079001506166
0.03631671286286018       631.5857100034779
0.03654690079812825       631.0185792228334
0.036777362054689705      630.506507808683
0.03700827808407173       630.049495761027
0.03723849938140827       629.6444998649214
0.03746827046781093       629.320801993544
0.03769777103645843       629.0784021468949
0.03792718141620601       628.9173003249741
0.0381566821485052        628.8374965277819
0.03838645356182577       628.8389907553177
0.03861667534858004       628.9217830075819
0.038846895274787324      628.8992324950146
0.039076664838430766      628.9783371309379
0.03930616372759302       629.1590969153517
0.03953557226638858       629.4415118482559
0.039765070991905134      629.8255819296511
0.039994840228642616      630.3113071595362
0.040225059665450036      630.8986875379122
0.04045597761776665       631.3619931174088
0.04068644078597457       631.9092396263223
0.04091663062609736       632.5404270646524
0.041146729240799984      633.2555554323993
0.04137691894925231       634.0546247295633
0.04160738185443156       634.9376349561437
0.04183829941298208       635.904586112141
0.04206856149768976       636.813485682269
0.04229837277362926       637.7588608509391
0.04252791316640542       638.7407116181511
0.04275736323887129       639.7590379839055
0.04298690376702529       640.813839948202
0.04321671531340127       641.9051175110404
0.04344697780296935       643.0328706724212
0.043676731016186174      644.2181424573414
0.04390603674591497       645.4124275202443
0.04413507359840861       646.6157258611297
0.04436402080919017       647.8280374799978
0.044593057824233256      649.0493623768488
0.04482236387867965       650.2797005516819
0.045052117578024006      651.519052004498
0.045282012653644836      652.7657041588144
0.045511459262636354      653.9974514217407
0.04574063633797325       655.2142937932767
0.04596972344420469       656.4162312734225
0.046198900357357554      657.6032638621784
0.046428346642361965      658.7753915595438
0.04665824123294997       659.9326143655192
0.04688855484177433       661.0045917193781
0.04711841720894409       662.0557708226665
0.04734800837831597       663.0861516753848
0.04757750903201372       664.0957342775328
0.047807100065861544      665.0845186291104
0.04803696216230292       666.0525047301177
0.04826727536583021       666.9996925805547
0.048498193048686675      667.7370054334183
0.048728656077441146      668.4513766399073
0.04895884590902903       669.1428062000214
0.04918894464672031       669.8112941137608
0.04941913460997818       670.4568403811259
0.04964959790176041       671.0794450021158
0.04988051597838159       671.6791079767313
0.05011073543954296       671.9451646420414
0.0503405047004922        672.2028734221035
0.05057000345013497       672.4522343169176
0.05079941201302823       672.6932473264839
0.05102891092631677       672.9259124508026
0.05125868051417213       673.1502296898728
0.051488900464733596      673.3661990436955
