% Model:              brazing.mph
% Version:            COMSOL 5.3.0.223
% Date:               Oct 24 2018, 02:39
% Dimension:          1
% Nodes:              145
% Expressions:        1
% Description:        Line graph
% x                       Height
0                         625.5675986026542
1.8037553861809572E-4     625.8862030015478
3.5951128344368776E-4     626.1394281264728
5.377561773732229E-4      626.3272739774299
7.154644111300318E-4      626.4497405544187
8.929933875627798E-4      626.5068278574391
0.0010707015910786408     626.4985358864914
0.0012489464247083767     626.4248646415754
0.0014280820795340731     626.285814122691
0.0016084574989771061     626.0813843298386
0.0017793134314883058     626.0100300539525
0.0019491114898538484     625.9089761382769
0.002118149876008701      625.7782225828121
0.0022867308232763497     625.617769387558
0.002455159027530182      625.4276165525146
0.0026237400128558564     625.2077640776819
0.0027927784749207734     624.9582119630597
0.0029625766466419693     624.6789602086482
0.0031334327293582195     624.3700088144475
0.0033042867504275058     624.1799538926886
0.0034740828875811486     623.9822185660659
0.0036431193341009516     623.7768028345799
0.0038116983146850476     623.5637066982305
0.003980124516686077      623.3429301570173
0.004148703455848711      623.1144732109407
0.004317739819749776      622.8783358600004
0.004487535833529769      622.6345181041969
0.004658389691119368      622.3830199435296
0.0048387629974717405     622.2562527980043
0.005017896580971026      622.1316423110284
0.005196139373513023      622.0091884826023
0.0053738455543625        621.8888913127257
0.005551372514551955      621.7707508013988
0.005729078726427549      621.6547669486213
0.005907321580834967      621.5409397543934
0.006086455256670912      621.4292692187151
0.006266828685292636      621.3197553415865
0.0064472042239161545     621.5068767310463
0.0066263399687470585     621.7004496387349
0.00680458486268183       621.9004740646528
0.0069822930964438265     622.1069500087998
0.007159822072881748      622.3198774711757
0.007337530276402798      622.5392564517808
0.007515775110037768      622.7650869506149
0.007694910764868775      622.9973689676782
0.007875286184317232      623.2361025029704
0.008046142116827224      623.5535824484361
0.008215940175191578      623.85917359654
0.008384978561345261      624.1528759472826
0.008553559508611747      624.4346895006637
0.008721987712864422      624.704614256683
0.008890568698188937      624.9626502153411
0.00905960716025268       625.2087973766374
0.009229405331972688      625.4430557405723
0.009400261414687729      625.6654253071456
0.009571115435747398      626.0407887310921
0.009740911572891598      626.3801535145052
0.009909948019402086      626.6835196573851
0.010078526999976944      626.9508871597318
0.010246953201968763      627.1822560215452
0.010415532141122159      627.3776262428254
0.010584568505013912      627.536997823572
0.010754364518784467      627.6603707637856
0.010925218376364454      627.747745063466
0.011105591682722255      627.9371578703962
0.01128472526622686       628.0721090338733
0.011462968058774099      628.1525985538976
0.011640674239628768      628.1786264304694
0.011818201199823401      628.1501926635881
0.01199590741170419       628.0672972532541
0.012174150266116847      627.9299401994672
0.012353283941958112      627.7381215022274
0.012533657370585264      627.491841161535
0.01271403176453574       627.4749448604108
0.012893166387683227      627.3928613153901
0.013071410176518557      627.2455905264732
0.013249117315197753      627.0331324936601
0.013426645199902413      626.7554872169505
0.013604352308338922      626.4126546963449
0.01378259603687098       626.0046349318427
0.013961730570013379      625.5314279234444
0.014142104844781908      624.9930336711498
0.014312959944399205      624.5463757043744
0.014482757184992078      624.0705349315988
0.014651794764271453      623.5655113528233
0.014820374911240972      623.0313049680475
0.014988802317395246      622.4679157772717
0.01515738250242126       621.875343780496
0.015326420157607648      621.25358897772
0.015496217511551624      620.602651368944
0.015667072761367945      619.9225309541679
0.01583792791479403       619.3492739079925
0.016007725163749622      618.7825571263556
0.01617676270725794       618.2223806092579
0.01634534277588875       617.668744356699
0.016513770062946447      617.1216483686787
0.01668235009015449       616.5810926451974
0.016851387551041475      616.0470771862548
0.017021184676619543      615.519601991851
0.017192039666560827      614.9986670619861
0.017372413817338207      614.5850590257634
0.017551548228302124      614.1969591910886
0.017729791836073705      613.8343675579622
0.017907498824762332      613.4972841263839
0.018085026590318725      613.185708896354
0.018262733610032132      612.8996418678722
0.018440977279666457      612.6390830409384
0.018620111782963036      612.404032415553
0.018800486056004474      612.1944899917157
0.018980860449944497      612.3059544505082
0.019159995073081745      612.4500517709993
0.019338238861906984      612.6267819531892
0.01951594600057618       612.8361449970776
0.019693473885270874      613.0781409026645
0.019871180993697383      613.3527696699502
0.020049424722219357      613.6600312989345
0.02022855925535152       613.9999257896175
0.0204089335301096        614.3724531419991
0.02057978862980686       614.8289737766701
0.020749585870478253      615.2856874347106
0.020918623449835097      615.7425941161209
0.021087203596881453      616.199693820901
0.021255631003112355      616.6569865490509
0.021424211188215206      617.1144723005705
0.021593248843479067      617.5721510754597
0.021763046197501558      618.0300228737187
0.02193390144739785       618.4880876953475
0.022104756600747556      619.1358218997203
0.02227455384962815       619.752170404179
0.02244359139306247       620.3371332087239
0.022612171461619885      620.8907103133548
0.022780598748604386      621.4129017180717
0.022949178775739036      621.9037074228748
0.02311821623655202       622.3631274277636
0.023288013362055097      622.7911617327387
0.023458868351919994      623.1878103377999
0.02363924250270423       623.6737097588848
0.023818376913674867      624.1042395542776
0.023996620521453065      624.4793997239785
0.02417432751014825       624.7991902679877
0.02435185527571118       625.0636111863049
0.024529562295431146      625.2726624789301
0.02470780596507209       625.4263441458634
0.024886940468375387      625.5246561871047
0.025067314741423676      625.5675986026542
