% Model:              brazing.mph
% Version:            COMSOL 5.3.0.223
% Date:               Oct 24 2018, 03:36
% Dimension:          1
% Nodes:              225
% Expressions:        1
% Description:        Line graph
% x                       Height
0                         686.4860484821637
2.3022181212578358E-4     686.3359675293443
4.5999325066962656E-4     686.1591633311152
6.894940081029028E-4      685.9556358874765
9.189044129547812E-4      685.7253851984278
0.001148405006736289      685.4684112639696
0.0013781761183620641     685.1847140841013
0.001608397441069865      684.8742936588235
0.001839314118928521      684.1511135113186
0.0020697760201574002     683.4320027663726
0.002299964597801726      682.7169614239854
0.0025300619515304015     682.0059894841568
0.0027602503975112853     681.2990869468872
0.0029907120357255193     680.5962538121761
0.003221628319839081      679.8974900800239
0.0034518885683530987     678.9768862936919
0.0036816980188178403     678.0463649489496
0.003911236592567028      677.1059260457973
0.004140684848157368      676.1555695842349
0.004370223557282477      675.1952955642627
0.004600033278179856      674.22510398588
0.004830293931548535      673.2449948490873
0.005060048526376791      672.0797168335216
0.005289355629682316      670.9263663657691
0.005518393850920054      669.7849434458294
0.005747342428834         668.6554480737028
0.00597638081262499       667.5378802493896
0.006205688240655705      666.432239972889
0.006435443321622868      665.3385272442015
0.006665339619110656      664.1659349827232
0.006894787442849326      663.0137018502028
0.007123965728649401      661.88182784664
0.007353054043912613      660.7703129720348
0.007582232167524012      659.6791572263876
0.007811679667266285      658.6083606096977
0.008041575479707366      657.5579231219656
0.008271887219609135      656.5030212670988
0.008501747728772392      655.4846773595942
0.008731337046705121      654.5028913994519
0.008960835851156599      653.5576633866716
0.009190425033567954      652.6489933212537
0.009420285272008154      651.7768812031976
0.009650596606620833      650.9413270325039
0.009881512912836019      650.1360860940097
0.010111974573021956      649.3817993174258
0.010342163040896366      648.678466702752
0.010572260416492441      648.0260882499884
0.010802449016030204      647.4246639591355
0.011032910939230619      646.8741938301923
0.011263827639190652      646.3746778631596
0.011494048967061755      645.8998063108371
0.011723820083820682      645.5037680528899
0.011953320682717213      645.1865630893174
0.012182731092678062      644.9481914201201
0.012412231855226382      644.7886530452984
0.012642003298903411      644.7079479648512
0.012872225116192546      644.7060761787793
0.013102446994778118      644.544993726684
0.013332218499393473      644.4853319802621
0.01356171932266464       644.5270909395136
0.013791129793276359      644.6702706044387
0.01402063045289555       644.9148709750374
0.014250401630592404      645.2608920513093
0.014480623019759359      645.7083338332549
0.014711539835704642      645.9738094877745
0.014942001874208778      646.3258085380927
0.015172190588640395      646.7643309842096
0.01540228807899374       647.2893768261251
0.015632476661762654      647.9009460638397
0.015862938437253588      648.5990386973524
0.01609385485945594       649.3836547266641
0.016324115336228646      650.0780228458849
0.016553925013622208      650.8132445477422
0.016783463813500554      651.5893198322357
0.017012912294953733      652.4062486993654
0.01724245123020976       653.2640311491317
0.01747226117803945       654.1626671815341
0.017702522059672054      655.1021567965728
0.017932276794613372      656.04710332996
0.018161584037218948      657.0185624196948
0.018390622397267263      658.0165340657776
0.018619571113827754      659.0410182682082
0.018848609636427344      660.0920150269868
0.019077917203754128      661.169524342113
0.019307672424828403      662.2735462135873
0.019537568573699274      663.2852546834577
0.01976701624968263       664.31213225555
0.019996194388245302      665.3541789298637
0.020225282556443316      666.4113947063992
0.020454460532815345      667.4837795851568
0.02068390788479834       668.5713335661358
0.020913803548616574      669.6740566493368
0.02114411498977932       670.5654199584575
0.021373975201947604      671.46916228885
0.02160356422393484       672.3852836405149
0.02183306273279162       673.3137840134517
0.02206265161925901       674.2546634076609
0.02229251156070728       675.2079218231419
0.02252282259658549       676.1735592598952
0.022753738766914562      676.808999194645
0.022984200292012823      677.4450040869933
0.023214388625279938      678.0815739369395
0.023444485866429166      678.7187087444839
0.023674674331359946      679.3564085096269
0.023905136119473275      679.9946732323676
0.024136052683548088      680.6335029127068
0.024366274021741702      680.8649377681954
0.024596045148762867      681.0979758257637
0.024825545757885373      681.3326170854111
0.02505495617806012       681.568861547138
0.02528445695083446       681.8067092109446
0.025514228404773787      682.0461600768302
0.025744450232385536      682.2872141447956
0.025974672267095825      682.1470439016358
0.026204443926923768      681.9872096185924
0.02643394490485871       681.8077112956652
0.02666335552995085       681.6085489328542
0.026892856344233315      681.3897225301598
0.02712262767714175       681.1512320875814
0.02735284922243193       680.8930776051195
0.027583766528201624      680.2148850048818
0.027814229053652367      679.5296226935556
0.028044418253299775      678.8372906711411
0.02827451622829193       678.1378889376383
0.028504705296278778      677.4314174930474
0.028735167558720572      676.717876337368
0.028966084470753738      675.9972654706004
0.029196345605491433      675.1034106182112
0.02942615593701711       674.1778322986747
0.02965569538872289       673.2205305119909
0.029885144521236064      672.2315052581598
0.030114684108324883      671.2107565371816
0.030344494710297387      670.1582843490557
0.030574756249911007      669.0740886937828
0.030804511377321087      667.8991981260746
0.031033819010118435      666.7152194412727
0.031262857758987544      665.5221526393768
0.03149180686390927       664.3199977203874
0.031720845775323685      663.1087546843045
0.031950153732830305      661.8884235311274
0.032179909346355486      660.6590042608569
0.0324098051544111        659.4467561903215
0.032639252491552244      658.2424278350079
0.03286843029245836       657.0460191949163
0.0330975181233935        655.8575302700467
0.03332669576210278       654.6769610603993
0.03355614277523119       653.5043115659734
0.033786038098215655      652.3395817867697
0.034016348759356954      651.2307383227787
0.03424620819605658       650.1577250074665
0.034475796445315066      649.1205418408329
0.03470529418235937       648.1191888228778
0.03493488229610333       647.1536659536016
0.035164741462093585      646.2239732330036
0.03539505171796626       645.3301106610844
0.035625967353597694      644.5042277991599
0.03585642834714083       643.736485969164
0.036086616150743635      643.0268851710961
0.03631671286286018       642.3754254049567
0.03654690079812825       641.7821066707461
0.036777362054689705      641.2469289684633
0.03700827808407173       640.7698922981091
0.03723849938140827       640.3485463106593
0.03746827046781093       640.0125990468541
0.03769777103645843       639.7620505066933
0.03792718141620601       639.5969006901771
0.0381566821485052        639.5171495973054
0.03838645356182577       639.5227972280782
0.03861667534858004       639.6138435824954
0.038846895274787324      639.599212829789
0.039076664838430766      639.6907897673744
0.03930616372759302       639.8885743952515
0.03953557226638858       640.1925667134203
0.039765070991905134      640.6027667218813
0.039994840228642616      641.1191744206335
0.040225059665450036      641.7417898096777
0.04045597761776665       642.2408606282643
0.04068644078597457       642.8272687175371
0.04091663062609736       643.5010140774964
0.041146729240799984      644.262096708142
0.04137691894925231       645.1105166094744
0.04160738185443156       646.0462737814929
0.04183829941298208       647.0693682241979
0.04206856149768976       648.036344618305
0.04229837277362926       649.0412853219996
0.04252791316640542       650.0841903352813
0.04275736323887129       651.1650596581507
0.04298690376702529       652.2838932906076
0.04321671531340127       653.4406912326516
0.04344697780296935       654.6354534842833
0.043676731016186174      655.8905080561955
0.04390603674591497       657.1544806487959
0.04413507359840861       658.4273712620841
0.04436402080919017       659.7091798960604
0.044593057824233256      660.9999065507251
0.04482236387867965       662.2995512260773
0.045052117578024006      663.6081139221178
0.045282012653644836      664.9251407582458
0.045511459262636354      666.22533693953
0.04574063633797325       667.5087024659704
0.04596972344420469       668.775237337567
0.046198900357357554      670.02494155432
0.046428346642361965      671.2578151162289
0.04665824123294997       672.4738580232942
0.04688855484177433       673.6043656492924
0.04711841720894409       674.7111547012886
0.04734800837831597       675.7942251792823
0.04757750903201372       676.8535770832739
0.047807100065861544      677.8892104132634
0.04803696216230292       678.9011251692505
0.04826727536583021       679.8893213512354
0.048498193048686675      680.6665722271022
0.048728656077441146      681.4169831752636
0.04895884590902903       682.1405541957199
0.04918894464672031       682.8372852884711
0.04941913460997818       683.5071764535172
0.04964959790176041       684.150227690858
0.04988051597838159       684.7664390004936
0.05011073543954296       685.0469061209952
0.0503405047004922        685.3157703671236
0.05057000345013497       685.5730317388783
0.05079941201302823       685.8186902362598
0.05102891092631677       686.0527458592679
0.05125868051417213       686.2751986079024
0.051488900464733596      686.4860484821637
