% Model:              brazing.mph
% Version:            COMSOL 5.3.0.223
% Date:               Oct 24 2018, 03:22
% Dimension:          1
% Nodes:              225
% Expressions:        1
% Description:        Line graph
% x                       Height
0                         683.0354690557964
2.3022181212578358E-4     682.8937053689624
4.5999325066962656E-4     682.7226832184932
6.894940081029028E-4      682.5224026043885
9.189044129547812E-4      682.2928635266485
0.001148405006736289      682.0340659852733
0.0013781761183620641     681.7460099802626
0.001608397441069865      681.4286955116165
0.001839314118928521      680.7178041193014
0.0020697760201574002     680.0091065831857
0.002299964597801726      679.3026029032694
0.0025300619515304015     678.5982930795526
0.0027602503975112853     677.8961771120355
0.0029907120357255193     677.1962550007175
0.003221628319839081      676.4985267455992
0.0034518885683530987     675.5870778738694
0.0036816980188178403     674.66662337712
0.003911236592567028      673.7371632553511
0.004140684848157368      672.7986975085626
0.004370223557282477      671.8512261367548
0.004600033278179856      670.8947491399272
0.004830293931548535      669.9292665180801
0.005060048526376791      668.7753988716619
0.005289355629682316      667.6340615597389
0.005518393850920054      666.5052545823111
0.005747342428834         665.3889779393785
0.00597638081262499       664.2852316309417
0.006205688240655705      663.1940156569997
0.006435443321622868      662.1153300175532
0.006665339619110656      660.9543460503054
0.006894787442849326      659.8144995922657
0.007123965728649401      658.6957906434346
0.007353054043912613      657.5982192038122
0.007582232167524012      656.5217852733982
0.007811679667266285      655.4664888521925
0.008041575479707366      654.4323299401954
0.008271887219609135      653.3902786464961
0.008501747728772392      652.3851884461244
0.008731337046705121      651.4170593390799
0.008960835851156599      650.4858913253629
0.009190425033567954      649.5916844049738
0.009420285272008154      648.7344385779116
0.009650596606620833      647.9141538441772
0.009881512912836019      647.1217984128324
0.010111974573021956      646.3805634403192
0.010342163040896366      645.6904489266377
0.010572260416492441      645.0514548717882
0.010802449016030204      644.4635812757706
0.011032910939230619      643.9268281385846
0.011263827639190652      643.4411954602305
0.011494048967061755      642.9797361906233
0.011723820083820682      642.5959919022285
0.011953320682717213      642.289962595046
0.012182731092678062      642.0616482690759
0.012412231855226382      641.9110489243187
0.012642003298903411      641.8381645607734
0.012872225116192546      641.8429951784408
0.013102446994778118      641.6999288698652
0.013332218499393473      641.6557185271284
0.01356171932266464       641.7103641502307
0.013791129793276359      641.8638657391718
0.01402063045289555       642.1162232939522
0.014250401630592404      642.4674368145711
0.014480623019759359      642.9175063010292
0.014711539835704642      643.197276026104
0.014942001874208778      643.5614238115389
0.015172190588640395      644.0099496573342
0.01540228807899374       644.5428535634896
0.015632476661762654      645.1601355300057
0.015862938437253588      645.8617955568818
0.01609385485945594       646.6478336441184
0.016324115336228646      647.3487058332882
0.016553925013622208      648.0902850500851
0.016783463813500554      648.8725712945089
0.017012912294953733      649.6955645665596
0.01724245123020976       650.5592648662375
0.01747226117803945       651.4636721935419
0.017702522059672054      652.4087865484736
0.017932276794613372      653.3555883602601
0.018161584037218948      654.3290128735878
0.018390622397267263      655.3290600884566
0.018619571113827754      656.3557300048668
0.018848609636427344      657.4090226228184
0.019077917203754128      658.4889379423108
0.019307672424828403      659.5954759633448
0.019537568573699274      660.6053000322878
0.01976701624968263       661.6307021445915
0.019996194388245302      662.6716823002555
0.020225282556443316      663.72824049928
0.020454460532815345      664.8003767416653
0.02068390788479834       665.8880910274108
0.020913803548616574      666.9913833565171
0.02114411498977932       667.8806522599841
0.021373975201947604      668.7825241721238
0.02160356422393484       669.6969990929364
0.02183306273279162       670.6240770224217
0.02206265161925901       671.5637579605802
0.02229251156070728       672.516041907411
0.02252282259658549       673.4809288629149
0.022753738766914562      674.1155437337818
0.022984200292012823      674.7508620587117
0.023214388625279938      675.3868838377047
0.023444485866429166      676.0236090707608
0.023674674331359946      676.6610377578802
0.023905136119473275      677.2991698990625
0.024136052683548088      677.9380054943081
0.024366274021741702      678.1735854415598
0.024596045148762867      678.4092185297502
0.024825545757885373      678.644904758879
0.02505495617806012       678.8806441289464
0.02528445695083446       679.1164366399528
0.025514228404773787      679.3522822918974
0.025744450232385536      679.5881810847808
0.025974672267095825      679.4659575162033
0.026204443926923768      679.3206075601443
0.02643394490485871       679.1521312166033
0.02666335552995085       678.9605284855808
0.026892856344233315      678.7457993670771
0.02712262767714175       678.5079438610912
0.02735284922243193       678.246961967624
0.027583766528201624      677.5862538317008
0.027814229053652367      676.9153517433816
0.028044418253299775      676.2342557026661
0.02827451622829193       675.5429657095546
0.028504705296278778      674.8414817640472
0.028735167558720572      674.1298038661432
0.028966084470753738      673.4079320158434
0.029196345605491433      672.5224034082524
0.02942615593701711       671.6048665610399
0.02965569538872289       670.6553214742049
0.029885144521236064      669.6737681477482
0.030114684108324883      668.6602065816696
0.030344494710297387      667.614636775969
0.030574756249911007      666.5370587306464
0.030804511377321087      665.3650946808511
0.031033819010118435      664.1842321891444
0.031262857758987544      662.9944712555259
0.03149180686390927       661.795811879996
0.031720845775323685      660.5882540625548
0.031950153732830305      659.3717978032017
0.032179909346355486      658.1464431019374
0.0324098051544111        656.9330419729251
0.032639252491552244      655.7279536060216
0.03286843029245836       654.5311780012265
0.0330975181233935        653.34271515854
0.03332669576210278       652.1625650779625
0.03355614277523119       650.9907277594931
0.033786038098215655      649.8272032031325
0.034016348759356954      648.7147623556735
0.03424620819605658       647.6382753904502
0.034475796445315066      646.5977423074623
0.03470529418235937       645.5931631067103
0.03493488229610333       644.6245377881943
0.035164741462093585      643.6918663519136
0.03539505171796626       642.7951487978688
0.035625967353597694      641.9633278418819
0.03585642834714083       641.1895435128482
0.036086616150743635      640.4737958107679
0.03631671286286018       639.816084735641
0.03654690079812825       639.2164102874677
0.036777362054689705      638.6747724662476
0.03700827808407173       638.1911712719811
0.03723849938140827       637.762201640631
0.03746827046781093       637.4176031514149
0.03769777103645843       637.1573758043327
0.03792718141620601       636.9815195993845
0.0381566821485052        636.8900345365704
0.03838645356182577       636.8829206158899
0.03861667534858004       636.9601778373437
0.038846895274787324      636.9399989887484
0.039076664838430766      637.0239547263607
0.03930616372759302       637.2120450501806
0.03953557226638858       637.5042699602081
0.039765070991905134      637.9006294564437
0.039994840228642616      638.4011235388864
0.040225059665450036      639.0057522075372
0.04045597761776665       639.4955295455937
0.04068644078597457       640.0710490981486
0.04091663062609736       640.7323108652013
0.041146729240799984      641.479314846752
0.04137691894925231       642.3120610428011
0.04160738185443156       643.2305494533481
0.04183829941298208       644.2347800783932
0.04206856149768976       645.1861229164317
0.04229837277362926       646.175611280651
0.04252791316640542       647.2032451710506
0.04275736323887129       648.2690245876312
0.04298690376702529       649.3729495303925
0.04321671531340127       650.5150199993342
0.04344697780296935       651.6952359944567
0.043676731016186174      652.9323409859751
0.04390603674591497       654.178910984008
0.04413507359840861       655.4349459885555
0.04436402080919017       656.7004459996173
0.044593057824233256      657.9754110171939
0.04482236387867965       659.2598410412846
0.045052117578024006      660.55373607189
0.045282012653644836      661.8512237369746
0.045511459262636354      663.1327284918088
0.04574063633797325       664.3982503363933
0.04596972344420469       665.6477892707273
0.046198900357357554      666.8813452948117
0.046428346642361965      668.0989184086455
0.04665824123294997       669.3005086122295
0.04688855484177433       670.4129699473909
0.04711841720894409       671.5024788683176
0.04734800837831597       672.5690353750088
0.04757750903201372       673.6126394674649
0.047807100065861544      674.633291145686
0.04803696216230292       675.6309904096717
0.04826727536583021       676.6057372594223
0.048498193048686675      677.3680980732571
0.048728656077441146      678.1042408781304
0.04895884590902903       678.8141656740422
0.04918894464672031       679.4978724609928
0.04941913460997818       680.155361238982
0.04964959790176041       680.7866320080095
0.04988051597838159       681.3916847680758
0.05011073543954296       681.6629801498448
0.0503405047004922        681.922119179963
0.05057000345013497       682.1691018584307
0.05079941201302823       682.403928185248
0.05102891092631677       682.6265981604148
0.05125868051417213       682.8371117839308
0.051488900464733596      683.0354690557964
