% Model:              brazing.mph
% Version:            COMSOL 5.3.0.223
% Date:               Oct 24 2018, 04:47
% Dimension:          1
% Nodes:              145
% Expressions:        1
% Description:        Line graph
% x                       Height
0                         626.9901243351247
1.8037553861809572E-4     627.2579011197909
3.5951128344368776E-4     627.470432357484
5.377561773732229E-4      627.6277180482048
7.154644111300318E-4      627.7297581919526
8.929933875627798E-4      627.7765527887278
0.0010707015910786408     627.7681018385304
0.0012489464247083767     627.70440534136
0.0014280820795340731     627.585463297217
0.0016084574989771061     627.4112757061013
0.0017793134314883058     627.3440437395523
0.0019491114898538484     627.2513068208073
0.002118149876008701      627.1330649498668
0.0022867308232763497     626.9893181267307
0.002455159027530182      626.820066351399
0.0026237400128558564     626.6253096238714
0.0027927784749207734     626.4050479441481
0.0029625766466419693     626.159281312229
0.0031334327293582195     625.8880097281145
0.0033042867504275058     625.7073289319894
0.0034740828875811486     625.5212504192484
0.0036431193341009516     625.3297741898917
0.0038116983146850476     625.1329002439194
0.003980124516686077      624.9306285813312
0.004148703455848711      624.7229592021274
0.004317739819749776      624.5098921063078
0.004487535833529769      624.2914272938723
0.004658389691119368      624.0675647648213
0.0048387629974717405     623.9415393320099
0.005017896580971026      623.8206018459128
0.005196139373513023      623.7047523065303
0.0053738455543625        623.5939907138622
0.005551372514551955      623.4883170679086
0.005729078726427549      623.3877313686695
0.005907321580834967      623.2922336161446
0.006086455256670912      623.2018238103343
0.006266828685292636      623.1165019512385
0.0064472042239161545     623.2670727036005
0.0066263399687470585     623.4259474386383
0.00680458486268183       623.5931261563521
0.0069822930964438265     623.7686088567418
0.007159822072881748      623.9523955398073
0.007337530276402798      624.1444862055486
0.007515775110037768      624.3448808539656
0.007694910764868775      624.5535794850585
0.007875286184317232      624.7705820988274
0.008046142116827224      625.0494992667359
0.008215940175191578      625.3197147328556
0.008384978561345261      625.581228497187
0.008553559508611747      625.8340405597297
0.008721987712864422      626.0781509204838
0.008890568698188937      626.3135595794495
0.00905960716025268       626.5402665366265
0.009229405331972688      626.758271792015
0.009400261414687729      626.967575345615
0.009571115435747398      627.294957145546
0.009740911572891598      627.5916921099423
0.009909948019402086      627.857780238804
0.010078526999976944      628.0932215321311
0.010246953201968763      628.2980159899234
0.010415532141122159      628.4721636121812
0.010584568505013912      628.6156643989043
0.010754364518784467      628.7285183500927
0.010925218376364454      628.8107254657466
0.011105591682722255      628.9756108331906
0.01128472526622686       629.0931159543776
0.011462968058774099      629.1632408293083
0.011640674239628768      629.1859854579824
0.011818201199823401      629.1613498403996
0.01199590741170419       629.0893339765603
0.012174150266116847      628.9699378664644
0.012353283941958112      628.8031615101116
0.012533657370585264      628.5890049075025
0.01271403176453574       628.5488639425039
0.012893166387683227      628.4532649259506
0.013071410176518557      628.302207857843
0.013249117315197753      628.0956927381808
0.013426645199902413      627.8337195669641
0.013604352308338922      627.516288344193
0.01378259603687098       627.1433990698672
0.013961730570013379      626.7150517439869
0.014142104844781908      626.2312463665521
0.014312959944399205      625.820404160588
0.014482757184992078      625.3848017179923
0.014651794764271453      624.9244390387653
0.014820374911240972      624.4393161229068
0.014988802317395246      623.9294329704168
0.01515738250242126       623.3947895812952
0.015326420157607648      622.835385955542
0.015496217511551624      622.2512220931574
0.015667072761367945      621.6422979941414
0.01583792791479403       621.1133276203221
0.016007725163749622      620.5922835094663
0.01617676270725794       620.0791656615742
0.01634534277588875       619.5739740766456
0.016513770062946447      619.0767087546805
0.01668235009015449       618.587369695679
0.016851387551041475      618.1059568996409
0.017021184676619543      617.6324703665664
0.017192039666560827      617.1669100964555
0.017372413817338207      616.7833134032311
0.017551548228302124      616.4264008445763
0.017729791836073705      616.0961724204914
0.017907498824762332      615.792628130976
0.018085026590318725      615.5157679760304
0.018262733610032132      615.2655919556545
0.018440977279666457      615.0421000698481
0.018620111782963036      614.8452923186113
0.018800486056004474      614.6751687019444
0.018980860449944497      614.7630448450119
0.019159995073081745      614.8832323761973
0.019338238861906984      615.035731295501
0.01951594600057618       615.2205416029226
0.019693473885270874      615.4376632984622
0.019871180993697383      615.68709638212
0.020049424722219357      615.9688408538957
0.02022855925535152       616.2828967137895
0.0204089335301096        616.6292639618013
0.02057978862980686       617.0402515936714
0.020749585870478253      617.4543833381483
0.020918623449835097      617.8716591952323
0.021087203596881453      618.2920791649234
0.021255631003112355      618.7156432472214
0.021424211188215206      619.1423514421263
0.021593248843479067      619.5722037496381
0.021763046197501558      620.0052001697569
0.02193390144739785       620.4413407024828
0.022104756600747556      621.0235865384993
0.02227455384962815       621.5795655029767
0.02244359139306247       622.1092775959154
0.022612171461619885      622.6127228173151
0.022780598748604386      623.0899011671761
0.022949178775739036      623.540812645498
0.02311821623655202       623.9654572522809
0.023288013362055097      624.3638349875248
0.023458868351919994      624.73594585123
0.02363924250270423       625.1782038622918
0.023818376913674867      625.572513439585
0.023996620521453065      625.9188745831101
0.02417432751014825       626.2172872928668
0.02435185527571118       626.4677515688551
0.024529562295431146      626.6702674110751
0.02470780596507209       626.8248348195266
0.024886940468375387      626.9314537942099
0.025067314741423676      626.9901243351247
