% Model:              brazing.mph
% Version:            COMSOL 5.3.0.223
% Date:               Oct 24 2018, 04:11
% Dimension:          1
% Nodes:              225
% Expressions:        1
% Description:        Line graph
% x                       Height
0                         760.5588706586869
2.3022181212578358E-4     760.3952868904215
4.5999325066962656E-4     760.189876777266
6.894940081029028E-4      759.9426403192209
9.189044129547812E-4      759.6535775162857
0.001148405006736289      759.322688368461
0.0013781761183620641     758.9499728757461
0.001608397441069865      758.5354310381414
0.001839314118928521      757.7369060898249
0.0020697760201574002     756.9303409840774
0.002299964597801726      756.1157357208984
0.0025300619515304015     755.2930903002888
0.0027602503975112853     754.4624047222484
0.0029907120357255193     753.6236789867766
0.003221628319839081      752.7769130938738
0.0034518885683530987     751.7163926819352
0.0036816980188178403     750.642569581324
0.003911236592567028      749.5554437920393
0.004140684848157368      748.4550153140818
0.004370223557282477      747.3412841474515
0.004600033278179856      746.2142502921477
0.004830293931548535      745.073913748171
0.005060048526376791      743.7347307123584
0.005289355629682316      742.4066173332151
0.005518393850920054      741.08957361074
0.005747342428834         739.7835995449338
0.00597638081262499       738.4886951357967
0.006205688240655705      737.204860383328
0.006435443321622868      735.9320952875282
0.006665339619110656      734.5721780151166
0.006894787442849326      733.235136470257
0.007123965728649401      731.9209706529493
0.007353054043912613      730.6296805631939
0.007582232167524012      729.3612662009907
0.007811679667266285      728.115727566339
0.008041575479707366      726.8930646592397
0.008271887219609135      725.6612893053975
0.008501747728772392      724.4718783906039
0.008731337046705121      723.3248319148587
0.008960835851156599      722.2201498781621
0.009190425033567954      721.1578322805143
0.009420285272008154      720.1378791219147
0.009650596606620833      719.1602904023638
0.009881512912836019      718.2140104353051
0.010111974573021956      717.3272480576516
0.010342163040896366      716.5000032694031
0.010572260416492441      715.7322760705596
0.010802449016030204      715.0240664611214
0.011032910939230619      714.375374441088
0.011263827639190652      713.7862000104597
0.011494048967061755      713.229717465283
0.011723820083820682      712.7598302774593
0.011953320682717213      712.3765384469882
0.012182731092678062      712.0798419738701
0.012412231855226382      711.8697408581052
0.012642003298903411      711.7462350996925
0.012872225116192546      711.709324698633
0.013102446994778118      711.5444435922369
0.013332218499393473      711.4859548765289
0.01356171932266464       711.533858551509
0.013791129793276359      711.6881546171771
0.01402063045289555       711.9488430735339
0.014250401630592404      712.3159239205784
0.014480623019759359      712.7893971583112
0.014711539835704642      713.1167933622199
0.014942001874208778      713.5344176411393
0.015172190588640395      714.0422699950685
0.01540228807899374       714.6403504240079
0.015632476661762654      715.328658927958
0.015862938437253588      716.1071955069178
0.01609385485945594       716.975960160888
0.016324115336228646      717.7758611057072
0.016553925013622208      718.621855400975
0.016783463813500554      719.5139430466915
0.017012912294953733      720.4521240428564
0.01724245123020976       721.4363983894702
0.01747226117803945       722.4667660865323
0.017702522059672054      723.5432271340431
0.017932276794613372      724.6228022283957
0.018161584037218948      725.7318065868498
0.018390622397267263      726.8702402094057
0.018619571113827754      728.0381030960635
0.018848609636427344      729.2353952468235
0.019077917203754128      730.462116661685
0.019307672424828403      731.7182673406485
0.019537568573699274      732.8736462928491
0.01976701624968263       734.0445442181642
0.019996194388245302      735.230961116594
0.020225282556443316      736.4328969881385
0.020454460532815345      737.650351832798
0.02068390788479834       738.8833256505717
0.020913803548616574      740.1318184414602
0.02114411498977932       741.1600960334777
0.021373975201947604      742.1982718654409
0.02160356422393484       743.2463459373502
0.02183306273279162       744.3043182492052
0.02206265161925901       745.3721888010065
0.02229251156070728       746.4499575927533
0.02252282259658549       747.5376246244463
0.022753738766914562      748.2896943340147
0.022984200292012823      749.0370704742943
0.023214388625279938      749.7797530452852
0.023444485866429166      750.5177420469872
0.023674674331359946      751.2510374794009
0.023905136119473275      751.9796393425253
0.024136052683548088      752.7035476363611
0.024366274021741702      753.0252133680259
0.024596045148762867      753.3377173175151
0.024825545757885373      753.6410594848286
0.02505495617806012       753.9352398699663
0.02528445695083446       754.2202584729285
0.025514228404773787      754.4961152937148
0.025744450232385536      754.7628103323256
0.025974672267095825      754.6870730569059
0.026204443926923768      754.5767326010244
0.02643394490485871       754.4317889646805
0.02666335552995085       754.2522421478751
0.026892856344233315      754.0380921506077
0.02712262767714175       753.7893389728782
0.02735284922243193       753.5059826146868
0.027583766528201624      752.8280873182297
0.027814229053652367      752.1287971280088
0.028044418253299775      751.4081120440245
0.02827451622829193       750.6660320662761
0.028504705296278778      749.9025571947642
0.028735167558720572      749.1176874294881
0.028966084470753738      748.3114227704485
0.029196345605491433      747.3380456835602
0.02942615593701711       746.3266081463098
0.02965569538872289       745.277110158697
0.029885144521236064      744.1895517207222
0.030114684108324883      743.0639328323854
0.030344494710297387      741.900253493686
0.030574756249911007      740.6985137046247
0.030804511377321087      739.3897734378862
0.031033819010118435      738.0699189392536
0.031262857758987544      736.7389502087268
0.03149180686390927       735.3968672463055
0.031720845775323685      734.0436700519904
0.031950153732830305      732.6793586257807
0.032179909346355486      731.3039329676769
0.0324098051544111        729.9340575612371
0.032639252491552244      728.5741753565654
0.03286843029245836       727.2242863536621
0.0330975181233935        725.8843905525267
0.03332669576210278       724.5544879531601
0.03355614277523119       723.2345785555614
0.033786038098215655      721.924662359731
0.034016348759356954      720.6640118247311
0.03424620819605658       719.4456522900391
0.034475796445315066      718.269583755654
0.03470529418235937       717.1358062215766
0.03493488229610333       716.0443196878069
0.035164741462093585      714.9951241543442
0.03539505171796626       713.9882196211893
0.035625967353597694      713.0499402503292
0.03585642834714083       712.1794051139497
0.036086616150743635      711.3766142120503
0.03631671286286018       710.6415675446317
0.03654690079812825       709.9742651116939
0.036777362054689705      709.3747069132362
0.03700827808407173       708.8428929492593
0.03723849938140827       708.3748940985213
0.03746827046781093       708.0010047945156
0.03769777103645843       707.7212250372418
0.03792718141620601       707.5355548267005
0.0381566821485052        707.4439941628918
0.03838645356182577       707.446543045815
0.03861667534858004       707.5432014754708
0.038846895274787324      707.5686012889298
0.039076664838430766      707.7056983975453
0.03930616372759302       707.9544928013174
0.03953557226638858       708.314984500246
0.039765070991905134      708.7871734943316
0.039994840228642616      709.3710597835733
0.040225059665450036      710.0666433679719
0.04045597761776665       710.6782397280338
0.04068644078597457       711.380890245768
0.04091663062609736       712.1745949211745
0.041146729240799984      713.059353754253
0.04137691894925231       714.0351667450042
0.04160738185443156       715.1020338934271
0.04183829941298208       716.2599551995226
0.04206856149768976       717.3831104191967
0.04229837277362926       718.5492610845157
0.04252791316640542       719.7584071954798
0.04275736323887129       721.0105487520887
0.04298690376702529       722.3056857543428
0.04321671531340127       723.6438182022417
0.04344697780296935       725.0249460957857
0.043676731016186174      726.4610516689982
0.04390603674591497       727.9075054153083
0.04413507359840861       729.364307334716
0.04436402080919017       730.8314574272217
0.044593057824233256      732.3089556928255
0.04482236387867965       733.7968021315269
0.045052117578024006      735.2949967433261
0.045282012653644836      736.787928076882
0.045511459262636354      738.2611084914598
0.04574063633797325       739.7145379870595
0.04596972344420469       741.148216563681
0.046198900357357554      742.5621442213247
0.046428346642361965      743.95632095999
0.04665824123294997       745.3307467796774
0.04688855484177433       746.6037797410368
0.04711841720894409       747.8466015844948
0.04734800837831597       749.0592123100511
0.04757750903201372       750.2416119177061
0.047807100065861544      751.3938004074599
0.04803696216230292       752.5157777793121
0.04826727536583021       753.6075440332628
0.048498193048686675      754.4749589362585
0.048728656077441146      755.3058761795886
0.04895884590902903       756.100295763253
0.04918894464672031       756.8582176872516
0.04941913460997818       757.5796419515849
0.04964959790176041       758.2645685562521
0.04988051597838159       758.9129975012542
0.05011073543954296       759.2195643565625
0.0503405047004922        759.5023171723598
0.05057000345013497       759.7612559486466
0.05079941201302823       759.9963806854227
0.05102891092631677       760.2076913826883
0.05125868051417213       760.3951880404428
0.051488900464733596      760.5588706586869
