% Model:              brazing.mph
% Version:            COMSOL 5.3.0.223
% Date:               Oct 24 2018, 05:23
% Dimension:          1
% Nodes:              145
% Expressions:        1
% Description:        Line graph
% x                       Height
0                         715.8574063849821
1.8037553861809572E-4     716.1252230741756
3.5951128344368776E-4     716.3378245670622
5.377561773732229E-4      716.4952108636425
7.154644111300318E-4      716.5973819639161
8.929933875627798E-4      716.644337867883
0.0010707015910786408     716.6360785755435
0.0012489464247083767     716.5726040868972
0.0014280820795340731     716.4539144019443
0.0016084574989771061     716.2800095206849
0.0017793134314883058     716.2140094689747
0.0019491114898538484     716.1228900524984
0.002118149876008701      716.0066512712565
0.0022867308232763497     715.8652931252486
0.002455159027530182      715.6988156144748
0.0026237400128558564     715.5072187389351
0.0027927784749207734     715.2905024986294
0.0029625766466419693     715.048666893558
0.0031334327293582195     714.7817119237205
0.0033042867504275058     714.6111766982822
0.0034740828875811486     714.4347076592002
0.0036431193341009516     714.2523048064749
0.0038116983146850476     714.0639681401061
0.003980124516686077      713.8696976600938
0.004148703455848711      713.6694933664382
0.004317739819749776      713.463355259139
0.004487535833529769      713.2512833381961
0.004658389691119368      713.0332776036101
0.0048387629974717405     712.9149523373185
0.005017896580971026      712.7995738574964
0.005196139373513023      712.6871421641443
0.0053738455543625        712.577657257262
0.005551372514551955      712.4711191368493
0.005729078726427549      712.3675278029062
0.005907321580834967      712.2668832554332
0.006086455256670912      712.1691854944297
0.006266828685292636      712.074434519896
0.0064472042239161545     712.2263823693748
0.0066263399687470585     712.3848485223899
0.00680458486268183       712.5498329789414
0.0069822930964438265     712.7213357390293
0.007159822072881748      712.8993568026533
0.007337530276402798      713.0838961698139
0.007515775110037768      713.2749538405105
0.007694910764868775      713.4725298147436
0.007875286184317232      713.6766240925131
0.008046142116827224      713.9427461658147
0.008215940175191578      714.1995854644252
0.008384978561345261      714.447141988345
0.008553559508611747      714.6854157375736
0.008721987712864422      714.9144067121114
0.008890568698188937      715.134114911958
0.00905960716025268       715.3445403371139
0.009229405331972688      715.5456829875786
0.009400261414687729      715.7375428633525
0.009571115435747398      716.0548507620825
0.009740911572891598      716.3421283615563
0.009909948019402086      716.5993756617743
0.010078526999976944      716.8265926627363
0.010246953201968763      717.0237793644421
0.010415532141122159      717.190935766892
0.010584568505013912      717.3280618700858
0.010754364518784467      717.4351576740233
0.010925218376364454      717.5122231787051
0.011105591682722255      717.6714425595917
0.01128472526622686       717.7845286435926
0.011462968058774099      717.8514814307081
0.011640674239628768      717.8723009209382
0.011818201199823401      717.8469871142829
0.01199590741170419       717.7755400107419
0.012174150266116847      717.6579596103155
0.012353283941958112      717.4942459130035
0.012533657370585264      717.2843989188061
0.01271403176453574       717.2626079186189
0.012893166387683227      717.1860971297922
0.013071410176518557      717.0548665523266
0.013249117315197753      716.8689161862217
0.013426645199902413      716.6282460314775
0.013604352308338922      716.332856088094
0.01378259603687098       715.9827463560715
0.013961730570013379      715.5779168354095
0.014142104844781908      715.1183675261083
0.014312959944399205      714.731851993854
0.014482757184992078      714.3210186605153
0.014651794764271453      713.8858675260929
0.014820374911240972      713.426398590586
0.014988802317395246      712.9426118539952
0.01515738250242126       712.4345073163204
0.015326420157607648      711.9020849775612
0.015496217511551624      711.3453448377179
0.015667072761367945      710.7642868967905
0.01583792791479403       710.2696831943687
0.016007725163749622      709.7816974302552
0.01617676270725794       709.3003296044506
0.01634534277588875       708.8255797169546
0.016513770062946447      708.3574477677674
0.01668235009015449       707.8959337568888
0.016851387551041475      707.441037684319
0.017021184676619543      706.9927595500575
0.017192039666560827      706.551099354105
0.017372413817338207      706.1936818265431
0.017551548228302124      705.8596710863415
0.017729791836073705      705.5490671335003
0.017907498824762332      705.2618699680195
0.018085026590318725      704.9980795898991
0.018262733610032132      704.757695999139
0.018440977279666457      704.5407191957391
0.018620111782963036      704.3471491796996
0.018800486056004474      704.1769859510206
0.018980860449944497      704.27383563585
0.019159995073081745      704.3998348183832
0.019338238861906984      704.5549834986203
0.01951594600057618       704.7392816765614
0.019693473885270874      704.9527293522065
0.019871180993697383      705.1953265255554
0.020049424722219357      705.4670731966081
0.02022855925535152       705.7679693653646
0.0204089335301096        706.0980150318252
0.02057978862980686       706.4929633745566
0.020749585870478253      706.888950409033
0.020918623449835097      707.2859761352549
0.021087203596881453      707.6840405532221
0.021255631003112355      708.0831436629344
0.021424211188215206      708.4832854643922
0.021593248843479067      708.8844659575949
0.021763046197501558      709.286685142543
0.02193390144739785       709.6899430192365
0.022104756600747556      710.2497871227026
0.02227455384962815       710.7832215846811
0.02244359139306247       711.2902464051723
0.022612171461619885      711.770861584176
0.022780598748604386      712.2250671216922
0.022949178775739036      712.6528630177208
0.02311821623655202       713.0542492722622
0.023288013362055097      713.4292258853158
0.023458868351919994      713.7777928568821
0.02363924250270423       714.1974502033601
0.023818376913674867      714.5699602556655
0.023996620521453065      714.8953230137989
0.02417432751014825       715.1735384777601
0.02435185527571118       715.404606647549
0.024529562295431146      715.5885275231656
0.02470780596507209       715.72530110461
0.024886940468375387      715.8149273918822
0.025067314741423676      715.8574063849821
