% Model:              brazing.mph
% Version:            COMSOL 5.3.0.223
% Date:               Oct 24 2018, 05:01
% Dimension:          1
% Nodes:              193
% Expressions:        1
% Description:        Line graph
% x                       Height
0                         659.947686202993
1.6028433640637486E-4     660.0268327379895
3.201839556876346E-4      660.0983175315465
4.7982673004648776E-4     660.1621405836642
6.393411493738095E-4      660.2183018943423
7.988560137323205E-4      660.266801463581
9.58500122107595E-4       660.3076392913804
0.0011184019611720658     660.3408153777405
0.0012786893978073315     660.366329722661
0.0014692881782178572     660.3840918979735
0.0016592398034323465     660.3839030892776
0.0018487589083489172     660.3657632965733
0.00203806159906999       660.3296725198608
0.0022273647228667317     660.2756307591399
0.0024168851255237504     660.2036380144108
0.002606838908709185      660.1136942856732
0.0027974407000143733     660.0057995729275
0.003000214284638094      659.8684368792666
0.0032022105766743216     659.7154134170488
0.003403687017647933      659.5467291862742
0.0036049030444305387     659.3623841869427
0.0038061191011872996     659.1623784190543
0.004007595631967136      658.9467118826091
0.00420959207329518       658.7153845776069
0.00441236586612622       658.4683965040477
0.004615139632985625      658.1908075330365
0.004817136048636202      657.9093317747559
0.005018612553936322      657.6239692292061
0.005219828585313435      657.3347198963869
0.005421044586718146      657.0415837762985
0.0056225210022172924     656.7445608689408
0.005824517268584787      656.4436511743138
0.006027290827249049      656.1388546924176
0.006217890949519272      655.822527337869
0.006407844130704021      655.5258472233689
0.0065973647866391935     655.248814348917
0.00678666880286996       654.9914287145134
0.006975972806121895      654.7536903201582
0.007165493423165078      654.535599165851
0.007355446539677438      654.3371552515923
0.007546046571713631      654.1583585773818
0.00770633524869351       654.0253460262273
0.007866237248851195      653.9106020998271
0.008025880956992212      653.8141267981812
0.008185395381580456      653.7359201212897
0.008344909844757132      653.6759820691526
0.008504553668569658      653.6343126417698
0.008664455861201733      653.6109118391415
0.008824744806995652      653.6057796612674
0.008985029143401957      653.6216012380966
0.009144928762683142      653.6606821344922
0.009304571537041926      653.7230223504544
0.009464085956369179      653.808621885983
0.00962360082072762       653.9174807410783
0.009783244929102828      654.0495989157401
0.009943146768167231      654.2049764099686
0.010103434204802428      654.3836132237635
0.010294032985212885      654.5859123000413
0.010483984610427306      654.8095027356397
0.01067350371534381       655.0543845305588
0.010862806406064813      655.3205576847985
0.011052109529861487      655.6080221983588
0.011241629932518437      655.9167780712397
0.011431583715703804      656.2468253034413
0.011622185507008923      656.5981638949635
0.011824959091632737      656.949179794794
0.012026955383669057      657.2919497036927
0.012228431824642762      657.6264736216593
0.01242964785142546       657.9527515486942
0.012630863908182311      658.2707834847972
0.012832340438962243      658.5805694299683
0.01303433688029038       658.8821093842075
0.013237110673121513      659.1754033475148
0.013439884439981065      659.4466628429615
0.013641880855631786      659.6970901130177
0.013843357360932049      659.9266851576837
0.014044573392309304      660.1354479769593
0.014245789393714157      660.3233785708446
0.014447265809213447      660.4904769393396
0.014649262075581083      660.6367430824442
0.01485203563424549       660.7621770001585
0.015042635756515686      660.8683296368051
0.015232588937700405      660.9567293456338
0.015422109593635547      661.0273761266442
0.015611413609866287      661.0802699798367
0.015800717613118194      661.1154109052111
0.01599023823016135       661.1327989027676
0.01618019134667368       661.132433972506
0.016370791378709844      661.1143161144263
0.016531080055689654      661.0717968584428
0.01669098205584727       661.0258222762435
0.016850625763988217      660.9763923678286
0.017010140188576394      660.9235071331976
0.017169654651752998      660.8671665723509
0.017329298475565455      660.8073706852884
0.017489200668197463      660.7441194720101
0.01764948961399131       660.677412932516
0.01780977395039525       660.5765528231634
0.017969673569674088      660.4634156036003
0.018129316344030533      660.3380012738264
0.01828883076335545       660.200309833842
0.01844834562771156       660.0503412836468
0.01860798973608443       659.8880956232412
0.018767891575146484      659.7135728526247
0.018928179011779317      659.5267729717976
0.019118777792188433      659.2359174570843
0.019308729417401523      658.9212242560496
0.019498248522316707      658.5826933686936
0.019687551213036395      658.2203247950164
0.019876854336831753      657.8341185350179
0.02006637473948738       657.424074588698
0.020256328522671414      656.9901929560567
0.020446930313975188      656.5324736370942
0.02064970389860279       655.993263082184
0.02085170019064286       655.4403592311763
0.02105317663162028       654.873762084071
0.02125439265840668       654.2934716408682
0.021455608715167235      653.699487901568
0.02165708524595088       653.0918108661699
0.021859081687282764      652.4704405346746
0.02206185548011769       651.8353769070816
0.022264629246980954      651.2095283216073
0.022466625662635346      650.5956963720853
0.022668102167939252      649.9938810585159
0.022869318199320136      649.4040823808987
0.023070534200728618      648.826300339234
0.023272010616231548      648.2605349335217
0.023474006882602858      647.7067861637619
0.02367678044127098       647.1650540299545
0.02386738056353977       646.6441601425355
0.024057333744723106      646.1591801505494
0.02424685440065687       645.7101140539959
0.024436158416886237      645.2969618528753
0.02462546242013677       644.9197235471872
0.024814983037178547      644.578399136932
0.025004936153689494      644.2729886221096
0.025195536185724256      644.0034920027198
0.0253558248627017        643.7698599482737
0.025515726862856965      643.5668138778844
0.025675370570995573      643.3943537915519
0.02583488499558142       643.252479689276
0.02599439945875569       643.1411915710568
0.02615404328256581       643.0604894368942
0.026313945475195465      643.0103732867882
0.026474234420986946      642.990843120739
0.026634518757392422      642.9972484349449
0.02679441837667279       643.0302526285013
0.026954061151030752      643.0898557014082
0.02711357557035719       643.1760576536653
0.027273090434714816      643.288858485273
0.027432734543089202      643.428258196231
0.027592636382152785      643.5942567865394
0.02775292381878715       643.7868542561981
0.02794352259919713       644.0265894918738
0.02813347422441108       644.3008444157795
0.028322993329327112      644.6096190279159
0.028512296020047647      644.9529133282823
0.02870159914384385       645.3307273168791
0.028891119546500334      645.7430609937063
0.02908107332968523       646.1899143587636
0.029271675120989875      646.6712874120515
0.02947444870561504       647.204015244853
0.029676444997652693      647.7476095897847
0.02987792143862772       648.3020704468458
0.030079137465411736      648.867397816037
0.030280353522169904      649.443591697358
0.030481830052951155      650.0306520908086
0.030683826494280624      650.6285789963893
0.030886600287113104      651.2373724140996
0.03108937405397396       651.8361012887441
0.03129137046962597       652.4284521279708
0.03149284697492751       653.0144249317793
0.03169406300630604       653.59401970017
0.03189527900771217       654.1672364331426
0.03209675542321274       654.7340751306972
0.03229875168958166       655.2945357928339
0.03250152524824737       655.8486184195526
0.03269212537051706       656.3010118172369
0.03288207855170127       656.7277475364983
0.033071599207635916      657.128825577337
0.033260903223866156      657.5042459397528
0.033450207227117564      657.8540086237456
0.033639727844160215      658.1781136293157
0.03382968096067204       658.4765609564629
0.034020280992707694      658.7493506051873
0.034180569669686675      658.944633326735
0.03434047166984347       659.126918684905
0.0345001153779836        659.2962066796975
0.03465962980257096       659.4524973111121
0.03481914426574675       659.5957905791489
0.034978788089558385      659.726086483808
0.03513869028218957       659.8433850250894
0.035298979227982585      659.947686202993
