% Model:              brazing.mph
% Version:            COMSOL 5.3.0.223
% Date:               Oct 24 2018, 05:37
% Dimension:          1
% Nodes:              193
% Expressions:        1
% Description:        Line graph
% x                       Height
0                         805.3400334538084
1.6028433640637486E-4     805.4088654133283
3.201839556876346E-4      805.4705266368609
4.7982673004648776E-4     805.5250171244064
6.393411493738095E-4      805.5723368759644
7.988560137323205E-4      805.6124858915354
9.58500122107595E-4       805.6454641711188
0.0011184019611720658     805.6712717147151
0.0012786893978073315     805.6899085223239
0.0014692881782178572     805.702138679104
0.0016592398034323465     805.6990741407886
0.0018487589083489172     805.6807149073776
0.00203806159906999       805.6470609788709
0.0022273647228667317     805.5981123552684
0.0024168851255237504     805.5338690365708
0.002606838908709185      805.454331022777
0.0027974407000143733     805.3594983138879
0.003000214284638094      805.2294937516455
0.0032022105766743216     805.0864753486984
0.003403687017647933      804.9304431050465
0.0036049030444305387     804.76139702069
0.0038061191011872996     804.5793370956286
0.004007595631967136      804.3842633298626
0.00420959207329518       804.176175723392
0.00441236586612622       803.9550742762166
0.004615139632985625      803.7124919255449
0.004817136048636202      803.4657410315102
0.005018612553936322      803.2148215941125
0.005219828585313435      802.9597336133519
0.005421044586718146      802.7004770892282
0.0056225210022172924     802.4370520217414
0.005824517268584787      802.1694584108917
0.006027290827249049      801.8976962566791
0.006217890949519272      801.6134686869033
0.006407844130704021      801.3465778498622
0.0065973647866391935     801.0970237455555
0.00678666880286996       800.8648063739835
0.006975972806121895      800.649925735146
0.007165493423165078      800.4523818290432
0.007355446539677438      800.2721746556748
0.007546046571713631      800.1093042150411
0.00770633524869351       799.9869293039286
0.007866237248851195      799.8802535862538
0.008025880956992212      799.7892770620175
0.008185395381580456      799.7139997312189
0.008344909844757132      799.6544215938585
0.008504553668569658      799.6105426499358
0.008664455861201733      799.5823628994516
0.008824744806995652      799.5698823424051
0.008985029143401957      799.57396535996
0.009144928762683142      799.599052817632
0.009304571537041926      799.6451447154212
0.009464085956369179      799.7122410533274
0.00962360082072762       799.8003418313507
0.009783244929102828      799.9094470494907
0.009943146768167231      800.0395567077479
0.010103434204802428      800.1906708061223
0.010294032985212885      800.3570974606347
0.010483984610427306      800.5426637750321
0.01067350371534381       800.7473697493141
0.010862806406064813      800.9712153834809
0.011052109529861487      801.2142006775324
0.011241629932518437      801.4763256314687
0.011431583715703804      801.7575902452896
0.011622185507008923      802.0579945189953
0.011824959091632737      802.3580515956143
0.012026955383669057      802.6502864777755
0.012228431824642762      802.934699165479
0.01242964785142546       803.2112896587251
0.012630863908182311      803.4800579575136
0.012832340438962243      803.7410040618444
0.01303433688029038       803.9941279717176
0.013237110673121513      804.2394296871331
0.013439884439981065      804.4744822982772
0.013641880855631786      804.6911659780866
0.013843357360932049      804.8894807265605
0.014044573392309304      805.0694265436997
0.014245789393714157      805.2310034295036
0.014447265809213447      805.3742113839727
0.014649262075581083      805.4990504071064
0.01485203563424549       805.6055204989053
0.015042635756515686      805.6927590234897
0.015232588937700405      805.765174028831
0.015422109593635547      805.8227655149293
0.015611413609866287      805.8655334817844
0.015800717613118194      805.8934779293965
0.01599023823016135       805.9065988577655
0.01618019134667368       805.9048962668916
0.016370791378709844      805.8883701567746
0.016531080055689654      805.8509959349079
0.01669098205584727       805.8106199726684
0.016850625763988217      805.7672422700551
0.017010140188576394      805.720862827069
0.017169654651752998      805.6714816437096
0.017329298475565455      805.6190987199767
0.017489200668197463      805.563714055871
0.01764948961399131       805.5053276513917
0.01780977395039525       805.4195434345053
0.017969673569674088      805.3234152371534
0.018129316344030533      805.2169430593364
0.01828883076335545       805.1001269010536
0.01844834562771156       804.9729667623056
0.01860798973608443       804.8354626430922
0.018767891575146484      804.6876145434134
0.018928179011779317      804.5294224632693
0.019118777792188433      804.2767762122475
0.019308729417401523      804.0035211199039
0.019498248522316707      803.7096571862388
0.019687551213036395      803.3951844112522
0.019876854336831753      803.0601027949439
0.02006637473948738       802.704412337314
0.020256328522671414      802.3281130383626
0.020446930313975188      801.9312048980897
0.02064970389860279       801.4705888120556
0.02085170019064286       800.9976680441208
0.02105317663162028       800.5124425942857
0.02125439265840668       800.0149124625503
0.021455608715167235      799.5050776489146
0.02165708524595088       798.9829381533785
0.021859081687282764      798.4484939759419
0.02206185548011769       797.901745116605
0.022264629246980954      797.372673757406
0.022466625662635346      796.8535689955462
0.022668102167939252      796.3444308310253
0.022869318199320136      795.8452592638438
0.023070534200728618      795.3560542940012
0.023272010616231548      794.8768159214977
0.023474006882602858      794.4075441463334
0.02367678044127098       793.9482389685082
0.02386738056353977       793.5054507250912
0.024057333744723106      793.0941483233374
0.02424685440065687       792.7143317632464
0.024436158416886237      792.3660010448185
0.02462546242013677       792.0491561680536
0.024814983037178547      791.7637971329519
0.025004936153689494      791.509923939513
0.025195536185724256      791.2875365877372
0.0253558248627017        791.0909960203368
0.025515726862856965      790.9214165220957
0.025675370570995573      790.7787980930144
0.02583488499558142       790.6631407330927
0.02599439945875569       790.5744444423307
0.02615404328256581       790.5127092207284
0.026313945475195465      790.4779350682858
0.026474234420986946      790.470121985003
0.026634518757392422      790.4833866544146
0.02679441837667279       790.5197546416929
0.026954061151030752      790.5792259468382
0.02711357557035719       790.66180056985
0.027273090434714816      790.7674785107287
0.027432734543089202      790.8962597694741
0.027592636382152785      791.0481443460861
0.02775292381878715       791.2231322405652
0.02794352259919713       791.4360634980609
0.02813347422441108       791.6786575701725
0.028322993329327112      791.9509144569005
0.028512296020047647      792.2528341582444
0.02870159914384385       792.5844166742044
0.028891119546500334      792.9456620047805
0.02908107332968523       793.3365701499728
0.029271675120989875      793.7571411097812
0.02947444870561504       794.2259434301767
0.029676444997652693      794.7026838545049
0.02987792143862772       795.1873623827661
0.030079137465411736      795.6799790149602
0.030280353522169904      796.180533751087
0.030481830052951155      796.6890265911467
0.030683826494280624      797.2054575351393
0.030886600287113104      797.7298265830649
0.03108937405397396       798.2515804253541
0.03129137046962597       798.7687396221723
0.03149284697492751       799.2813041735195
0.03169406300630604       799.789274079396
0.03189527900771217       800.2926493398016
0.03209675542321274       800.7914299547361
0.03229875168958166       801.2856159242
0.03250152524824737       801.7752072481927
0.03269212537051706       802.1654310660268
0.03288207855170127       802.5339388355329
0.033071599207635916      802.880730556711
0.033260903223866156      803.2058062295611
0.033450207227117564      803.5091658540829
0.033639727844160215      803.7908094302769
0.03382968096067204       804.0507369581427
0.034020280992707694      804.2889484376805
0.034180569669686675      804.461522739848
0.03434047166984347       804.622328849115
0.0345001153779836        804.7713667654815
0.03465962980257096       804.9086364889478
0.03481914426574675       805.0341380195135
0.034978788089558385      805.1478713571788
0.03513869028218957       805.2498365019438
0.035298979227982585      805.3400334538084
