% Model:              brazing.mph
% Version:            COMSOL 5.3.0.223
% Date:               Oct 24 2018, 04:31
% Dimension:          1
% Nodes:              225
% Expressions:        1
% Description:        Line graph
% x                       Height
0                         754.7261968386287
2.3022181212578358E-4     754.5641548869697
4.5999325066962656E-4     754.3748725236973
6.894940081029028E-4      754.1583497488106
9.189044129547812E-4      753.9145865623105
0.001148405006736289      753.6435829641965
0.0013781761183620641     753.3453389544685
0.001608397441069865      753.0198545331269
0.001839314118928521      752.262367168851
0.0020697760201574002     751.5082513233623
0.002299964597801726      750.7575069966606
0.0025300619515304015     750.010134188746
0.0027602503975112853     749.2661328996187
0.0029907120357255193     748.5255031292781
0.003221628319839081      747.7882448777249
0.0034518885683530987     746.8194054138984
0.0036816980188178403     745.8383284266488
0.003911236592567028      744.8450139159754
0.004140684848157368      743.8394618818788
0.004370223557282477      742.8216723243593
0.004600033278179856      741.7916452434159
0.004830293931548535      740.7493806390495
0.005060048526376791      739.5223177258905
0.005289355629682316      738.3059106038847
0.005518393850920054      737.1001592730322
0.005747342428834         735.9050637333328
0.00597638081262499       734.720623984787
0.006205688240655705      733.5468400273941
0.006435443321622868      732.3837118611546
0.006665339619110656      731.1436165465176
0.006894787442849326      729.9231309282189
0.007123965728649401      728.7222550062583
0.007353054043912613      727.5409887806358
0.007582232167524012      726.3793322513516
0.007811679667266285      725.237285418405
0.008041575479707366      724.1148482817969
0.008271887219609135      722.9907773846804
0.008501747728772392      721.9037756954432
0.008731337046705121      720.8538432140853
0.008960835851156599      719.8409799406066
0.009190425033567954      718.8651858750076
0.009420285272008154      717.9264610172874
0.009650596606620833      717.0248053674466
0.009881512912836019      716.1561645439351
0.010111974573021956      715.339952680588
0.010342163040896366      714.5761697774053
0.010572260416492441      713.8648158343872
0.010802449016030204      713.2058908515338
0.011032910939230619      712.5993948288444
0.011263827639190652      712.0453277663198
0.011494048967061755      711.5181268596308
0.011723820083820682      711.0726567979199
0.011953320682717213      710.7089175811874
0.012182731092678062      710.426909209433
0.012412231855226382      710.2266316826573
0.012642003298903411      710.1080850008593
0.012872225116192546      710.07126916404
0.013102446994778118      709.8686523422044
0.013332218499393473      709.7715234003863
0.01356171932266464       709.7798823385853
0.013791129793276359      709.8937291568014
0.01402063045289555       710.1130638550353
0.014250401630592404      710.4378864332859
0.014480623019759359      710.8681968915541
0.014711539835704642      711.1110221528728
0.014942001874208778      711.4438078536139
0.015172190588640395      711.8665539937771
0.01540228807899374       712.3792605733622
0.015632476661762654      712.9819275923701
0.015862938437253588      713.6745550507995
0.01609385485945594       714.4571429486515
0.016324115336228646      715.1487586307866
0.016553925013622208      715.8826718919206
0.016783463813500554      716.6588827320528
0.017012912294953733      717.4773911511836
0.01724245123020976       718.3381971493133
0.01747226117803945       719.241300726441
0.017702522059672054      720.1867018825675
0.017932276794613372      721.1424413438881
0.018161584037218948      722.1255530492656
0.018390622397267263      723.1360369987003
0.018619571113827754      724.1738931921925
0.018848609636427344      725.2391216297419
0.019077917203754128      726.3317223113482
0.019307672424828403      727.451695237012
0.019537568573699274      728.4837641200685
0.01976701624968263       729.5309029045794
0.019996194388245302      730.5931115905448
0.020225282556443316      731.6703901779646
0.020454460532815345      732.7627386668393
0.02068390788479834       733.8701570571678
0.020913803548616574      734.9926453489512
0.02114411498977932       735.9056705731216
0.021373975201947604      736.8306748543378
0.02160356422393484       737.7676581925991
0.02183306273279162       738.716620587906
0.02206265161925901       739.6775620402587
0.02229251156070728       740.6504825496567
0.02252282259658549       741.6353821161002
0.022753738766914562      742.2889955556932
0.022984200292012823      742.9423173460892
0.023214388625279938      743.5953474872886
0.023444485866429166      744.2480859792911
0.023674674331359946      744.9005328220971
0.023905136119473275      745.552688015706
0.024136052683548088      746.2045515601184
0.024366274021741702      746.4443292447859
0.024596045148762867      746.6861065587315
0.024825545757885373      746.9298835019556
0.02505495617806012       747.1756600744582
0.02528445695083446       747.4234362762394
0.025514228404773787      747.6732121072986
0.025744450232385536      747.9249875676364
0.025974672267095825      747.7710301621639
0.026204443926923768      747.5996546422307
0.02643394490485871       747.4108610078364
0.02666335552995085       747.2046492589817
0.026892856344233315      746.9810193956666
0.02712262767714175       746.7399714178903
0.02735284922243193       746.4815053256535
0.027583766528201624      745.7802576736462
0.027814229053652367      745.0738939158758
0.028044418253299775      744.3624140523417
0.02827451622829193       743.6458180830444
0.028504705296278778      742.924106007984
0.028735167558720572      742.19727782716
0.028966084470753738      741.4653335405727
0.029196345605491433      740.5483003830606
0.02942615593701711       739.599103962777
0.02965569538872289       738.6177442797215
0.029885144521236064      737.6042213338944
0.030114684108324883      736.5585351252961
0.030344494710297387      735.4806856539255
0.030574756249911007      734.3706729197837
0.030804511377321087      733.1718311653624
0.031033819010118435      731.9637618768252
0.031262857758987544      730.7464650541716
0.03149180686390927       729.5199406974019
0.031720845775323685      728.2841888065163
0.031950153732830305      727.0392093815143
0.032179909346355486      725.7850024223962
0.0324098051544111        724.5526729225014
0.032639252491552244      723.3286065265958
0.03286843029245836       722.1128032346788
0.0330975181233935        720.905263046751
0.03332669576210278       719.7059859628124
0.03355614277523119       718.5149719828623
0.033786038098215655      717.3322211069017
0.034016348759356954      716.21039811664
0.03424620819605658       715.1259548722512
0.034475796445315066      714.0788913737356
0.03470529418235937       713.069207621093
0.03493488229610333       712.0969036143238
0.035164741462093585      711.1619793534273
0.03539505171796626       710.2644348384041
0.035625967353597694      709.4389544540613
0.03585642834714083       708.6740358955309
0.036086616150743635      707.9696791628123
0.03631671286286018       707.3258842559062
0.03654690079812825       706.7426511748124
0.036777362054689705      706.2199799195305
0.03700827808407173       705.757870490061
0.03723849938140827       705.3547478967574
0.03746827046781093       705.0400153228503
0.03769777103645843       704.8136727683396
0.03792718141620601       704.6757202332253
0.0381566821485052        704.6261577175079
0.03838645356182577       704.6649852211866
0.03861667534858004       704.7922027442621
0.038846895274787324      704.8132940495076
0.039076664838430766      704.9438047503966
0.03930616372759302       705.183734846929
0.03953557226638858       705.5330843391052
0.039765070991905134      705.9918532269253
0.039994840228642616      706.5600415103886
0.040225059665450036      707.2376491894958
0.04045597761776665       707.7922735814127
0.04068644078597457       708.4364371887231
0.04091663062609736       709.1701400114272
0.041146729240799984      709.9933820495248
0.04137691894925231       710.9061633030165
0.04160738185443156       711.9084837719012
0.04183829941298208       713.0003434561798
0.04206856149768976       714.0381589729813
0.04229837277362926       715.114513191909
0.04252791316640542       716.2294061129631
0.04275736323887129       717.3828377361433
0.04298690376702529       718.5748080614501
0.04321671531340127       719.8053170888827
0.04344697780296935       721.074364818442
0.043676731016186174      722.4063335863659
0.04390603674591497       723.7466778752604
0.04413507359840861       725.0953976851252
0.04436402080919017       726.4524930159606
0.044593057824233256      727.8179638677669
0.04482236387867965       729.1918102405432
0.045052117578024006      730.5740321342903
0.045282012653644836      731.9675548399365
0.045511459262636354      733.3422987545196
0.04574063633797325       734.698263878039
0.04596972344420469       736.0354502104952
0.046198900357357554      737.3538577518882
0.046428346642361965      738.6534865022177
0.04665824123294997       739.9343364614839
0.04688855484177433       741.1302676051088
0.04711841720894409       742.2997883266672
0.04734800837831597       743.4428986261593
0.04757750903201372       744.5595985035851
0.047807100065861544      745.6498879589448
0.04803696216230292       746.7137669922378
0.04826727536583021       747.7512356034647
0.048498193048686675      748.5759993878285
0.048728656077441146      749.3706855052462
0.04895884590902903       750.1352939557173
0.04918894464672031       750.8698247392423
0.04941913460997818       751.5742778558212
0.04964959790176041       752.2486533054533
0.04988051597838159       752.8929510881393
0.05011073543954296       753.1969958830099
0.0503405047004922        753.4869898296137
0.05057000345013497       753.7629329279504
0.05079941201302823       754.02482517802
0.05102891092631677       754.2726665798233
0.05125868051417213       754.5064571333593
0.051488900464733596      754.7261968386287
