% Model:              brazing.mph
% Version:            COMSOL 5.3.0.223
% Date:               Oct 24 2018, 00:57
% Dimension:          1
% Nodes:              225
% Expressions:        1
% Description:        Line graph
% x                       Height
0                         658.982240457534
2.3022181212578358E-4     658.79987507455
4.5999325066962656E-4     658.5962041967298
6.894940081029028E-4      658.3712278240732
9.189044129547812E-4      658.1249459565807
0.001148405006736289      657.8573585942521
0.0013781761183620641     657.568465737087
0.001608397441069865      657.2582673850859
0.001839314118928521      656.4823780580114
0.0020697760201574002     655.7143401839406
0.002299964597801726      654.954153762874
0.0025300619515304015     654.2018187948112
0.0027602503975112853     653.4573352797526
0.0029907120357255193     652.7207032176975
0.003221628319839081      651.9919226086465
0.0034518885683530987     651.0206127286876
0.0036816980188178403     650.0345920273029
0.003911236592567028      649.0338605044925
0.004140684848157368      648.0184181602565
0.004370223557282477      646.9882649945948
0.004600033278179856      645.9434010075072
0.004830293931548535      644.883826198994
0.005060048526376791      643.6545828226493
0.005289355629682316      642.4345652230311
0.005518393850920054      641.2237734001391
0.005747342428834         640.0222073539734
0.00597638081262499       638.8298670845344
0.006205688240655705      637.6467525918214
0.006435443321622868      636.472863875835
0.006665339619110656      635.2355003029194
0.006894787442849326      634.0163410161374
0.007123965728649401      632.8153860154889
0.007353054043912613      631.6326353009742
0.007582232167524012      630.4680888725934
0.007811679667266285      629.3217467303459
0.008041575479707366      628.1936088742322
0.008271887219609135      627.076497179391
0.008501747728772392      625.9964365225103
0.008731337046705121      624.9534269035898
0.008960835851156599      623.9474683226297
0.009190425033567954      622.9785607796302
0.009420285272008154      622.0467042745908
0.009650596606620833      621.1518988075119
0.009881512912836019      620.2997926273598
0.010111974573021956      619.5010367629397
0.010342163040896366      618.7556312142517
0.010572260416492441      618.063575981296
0.010802449016030204      617.4248710640727
0.011032910939230619      616.8395164625812
0.011263827639190652      616.307512176822
0.011494048967061755      615.8061357856093
0.011723820083820682      615.3909900746829
0.011953320682717213      615.062075044043
0.012182731092678062      614.8193906936893
0.012412231855226382      614.6629370236224
0.012642003298903411      614.5927140338414
0.012872225116192546      614.6087217243471
0.013102446994778118      614.4270829538391
0.013332218499393473      614.3596529184941
0.01356171932266464       614.4064316183124
0.013791129793276359      614.5674190532937
0.01402063045289555       614.8426152234385
0.014250401630592404      615.2320201287463
0.014480623019759359      615.7356337692172
0.014711539835704642      616.0171561970402
0.014942001874208778      616.3951980097261
0.015172190588640395      616.8697592072748
0.01540228807899374       617.4408397896862
0.015632476661762654      618.1084397569608
0.015862938437253588      618.8725591090979
0.01609385485945594       619.733197846098
0.016324115336228646      620.4872705647581
0.016553925013622208      621.283414759354
0.016783463813500554      622.1216304298854
0.017012912294953733      623.0019175763525
0.01724245123020976       623.9242761987557
0.01747226117803945       624.8887062970942
0.017702522059672054      625.8952078713687
0.017932276794613372      626.9223795070986
0.018161584037218948      627.9747303554819
0.018390622397267263      629.0522604165182
0.018619571113827754      630.1549696902076
0.018848609636427344      631.2828581765506
0.019077917203754128      632.4359258755462
0.019307672424828403      633.6141727871952
0.019537568573699274      634.7157719684421
0.01976701624968263       635.8286055756457
0.019996194388245302      636.9526736088058
0.020225282556443316      638.0879760679225
0.020454460532815345      639.2345129529958
0.02068390788479834       640.3922842640255
0.020913803548616574      641.561290001012
0.02114411498977932       642.53079801898
0.021373975201947604      643.5082707455842
0.02160356422393484       644.4937081808243
0.02183306273279162       645.4871103247009
0.02206265161925901       646.4884771772138
0.02229251156070728       647.4978087383624
0.02252282259658549       648.5151050081475
0.022753738766914562      649.2083905100342
0.022984200292012823      649.8970947485312
0.023214388625279938      650.581217723639
0.023444485866429166      651.2607594353574
0.023674674331359946      651.9357198836866
0.023905136119473275      652.6060990686261
0.024136052683548088      653.2718969901764
0.024366274021741702      653.5284610506766
0.024596045148762867      653.7857014115194
0.024825545757885373      654.043618072705
0.02505495617806012       654.3022110342331
0.02528445695083446       654.5614802961044
0.025514228404773787      654.8214258583178
0.025744450232385536      655.0820477208741
0.025974672267095825      654.9068185657168
0.026204443926923768      654.7168796148361
0.02643394490485871       654.5122308682322
0.02666335552995085       654.2928723259049
0.026892856344233315      654.0588039878546
0.02712262767714175       653.8100258540808
0.02735284922243193       653.5465379245838
0.027583766528201624      652.8057134065566
0.027814229053652367      652.0614305888104
0.028044418253299775      651.3136894713449
0.02827451622829193       650.5624900541603
0.028504705296278778      649.807832337257
0.028735167558720572      649.0497163206342
0.028966084470753738      648.2881420042925
0.029196345605491433      647.323461416581
0.02942615593701711       646.3230062444109
0.02965569538872289       645.2867764877817
0.029885144521236064      644.2147721466938
0.030114684108324883      643.1069932211474
0.030344494710297387      641.9634397111415
0.030574756249911007      640.7841116166773
0.030804511377321087      639.5244584259441
0.031033819010118435      638.2522076356123
0.031262857758987544      636.9673592456817
0.03149180686390927       635.6699132561523
0.031720845775323685      634.3598696670246
0.031950153732830305      633.0372284782977
0.032179909346355486      631.7019896899723
0.0324098051544111        630.3994567393361
0.032639252491552244      629.1026028321701
0.03286843029245836       627.8114279684742
0.0330975181233935        626.5259321482484
0.03332669576210278       625.2461153714933
0.03355614277523119       623.971977638208
0.033786038098215655      622.7035189483931
0.034016348759356954      621.5064468023678
0.03424620819605658       620.3462027071997
0.034475796445315066      619.2227866628888
0.03470529418235937       618.1361986694354
0.03493488229610333       617.0864387268394
0.035164741462093585      616.0735068351004
0.03539505171796626       615.0974029942189
0.035625967353597694      614.2017034970362
0.03585642834714083       613.3675809560428
0.036086616150743635      612.5950353712386
0.03631671286286018       611.8840667426238
0.03654690079812825       611.2346750701985
0.036777362054689705      610.6468603539621
0.03700827808407173       610.1206225939152
0.03723849938140827       609.6569057788472
0.03746827046781093       609.2867540386911
0.03769777103645843       609.0101673734473
0.03792718141620601       608.8271457831154
0.0381566821485052        608.7376892676958
0.03838645356182577       608.7417978271881
0.03861667534858004       608.8394714615926
0.038846895274787324      608.8004092557906
0.039076664838430766      608.8803545446054
0.03930616372759302       609.0793073280372
0.03953557226638858       609.397267606086
0.039765070991905134      609.8342353787519
0.039994840228642616      610.3902106460345
0.040225059665450036      611.0651934079341
0.04045597761776665       611.5836510119914
0.04068644078597457       612.199709358884
0.04091663062609736       612.913368448612
0.041146729240799984      613.7246282811757
0.04137691894925231       614.633488856575
0.04160738185443156       615.6399501748095
0.04183829941298208       616.7440122358798
0.04206856149768976       617.780291956225
0.04229837277362926       618.8562110250397
0.04252791316640542       619.9717694423234
0.04275736323887129       621.1269672080765
0.04298690376702529       622.3218043222994
0.04321671531340127       623.556280784991
0.04344697780296935       624.8303965961524
0.043676731016186174      626.1797521824719
0.04390603674591497       627.5368386285315
0.04413507359840861       628.9016559343312
0.04436402080919017       630.2742040998711
0.044593057824233256      631.6544831251515
0.04482236387867965       633.0424930101716
0.045052117578024006      634.4382337549322
0.045282012653644836      635.8584274260791
0.045511459262636354      637.2575432594634
0.04574063633797325       638.6355812550852
0.04596972344420469       639.9925414129444
0.046198900357357554      641.3284237330414
0.046428346642361965      642.6432282153756
0.04665824123294997       643.9369548599475
0.04688855484177433       645.1570826627805
0.04711841720894409       646.3483278173785
0.04734800837831597       647.5106903237415
0.04757750903201372       648.6441701818695
0.047807100065861544      649.7487673917628
0.04803696216230292       650.8244819534208
0.04826727536583021       651.8713138668439
0.048498193048686675      652.7138952590941
0.048728656077441146      653.523792654015
0.04895884590902903       654.3010060516068
0.04918894464672031       655.0455354518695
0.04941913460997818       655.7573808548033
0.04964959790176041       656.4365422604075
0.04988051597838159       657.0830196686827
0.05011073543954296       657.3928825266295
0.0503405047004922        657.6898968504439
0.05057000345013497       657.9740626401262
0.05079941201302823       658.2453798956764
0.05102891092631677       658.5038486170945
0.05125868051417213       658.7494688043803
0.051488900464733596      658.982240457534
