% Model:              brazing.mph
% Version:            COMSOL 5.3.0.223
% Date:               Oct 24 2018, 05:15
% Dimension:          1
% Nodes:              193
% Expressions:        1
% Description:        Line graph
% x                       Height
0                         709.888891770355
1.6028433640637486E-4     709.9613060229462
3.201839556876346E-4      710.0264915752207
4.7982673004648776E-4     710.0844484271781
6.393411493738095E-4      710.1351765788187
7.988560137323205E-4      710.1786760301424
9.58500122107595E-4       710.2149467811491
0.0011184019611720658     710.2439888318389
0.0012786893978073315     710.2658021822119
0.0014692881782178572     710.2807160131473
0.0016592398034323465     710.2794229614625
0.0018487589083489172     710.2619230271579
0.00203806159906999       710.228216210233
0.0022273647228667317     710.178302510688
0.0024168851255237504     710.112181928523
0.002606838908709185      710.0298544637379
0.0027974407000143733     709.9313201163328
0.003000214284638094      709.8012698417039
0.0032022105766743216     709.6571575373988
0.003403687017647933      709.4989832034179
0.0036049030444305387     709.326746839761
0.0038061191011872996     709.1404484464282
0.004007595631967136      708.9400880234194
0.00420959207329518       708.7256655707348
0.00441236586612622       708.4971810883742
0.004615139632985625      708.2432955925178
0.004817136048636202      707.985495191353
0.005018612553936322      707.7237798848796
0.005219828585313435      707.4581496730978
0.005421044586718146      707.1886045560074
0.0056225210022172924     706.9151445336087
0.005824517268584787      706.6377696059013
0.006027290827249049      706.3564797728856
0.006217890949519272      706.0635085683995
0.006407844130704021      705.7885255494555
0.0065973647866391935     705.531530716053
0.00678666880286996       705.2925240681925
0.006975972806121895      705.0715056058738
0.007165493423165078      704.8684753290969
0.007355446539677438      704.6834332378619
0.007546046571713631      704.5163793321688
0.00770633524869351       704.3912892900155
0.007866237248851195      704.2828114853012
0.008025880956992212      704.1909459180256
0.008185395381580456      704.1156925881887
0.008344909844757132      704.0570514957907
0.008504553668569658      704.0150226408315
0.008664455861201733      703.9896060233111
0.008824744806995652      703.9808016432295
0.008985029143401957      703.9901770100753
0.009144928762683142      704.0211153950149
0.009304571537041926      704.0736167980481
0.009464085956369179      704.1476812191747
0.00962360082072762       704.243308658395
0.009783244929102828      704.3604991157089
0.009943146768167231      704.4992525911163
0.010103434204802428      704.6595690846174
0.010294032985212885      704.8390325596529
0.010483984610427306      705.038190146325
0.01067350371534381       705.2570418446337
0.010862806406064813      705.495587654579
0.011052109529861487      705.753827576161
0.011241629932518437      706.0317616093797
0.011431583715703804      706.329389754235
0.011622185507008923      706.6467120107269
0.011824959091632737      706.9632518443832
0.012026955383669057      707.2720259920604
0.012228431824642762      707.5730344537583
0.01242964785142546       707.8662772294772
0.012630863908182311      708.1517543192169
0.012832340438962243      708.4294657229774
0.01303433688029038       708.6994114407587
0.013237110673121513      708.9615914725608
0.013439884439981065      709.2076293293594
0.013641880855631786      709.4345890513116
0.013843357360932049      709.6424706384175
0.014044573392309304      709.8312740906774
0.014245789393714157      710.0009994080909
0.014447265809213447      710.1516465906583
0.014649262075581083      710.2832156383793
0.01485203563424549       710.395706551254
0.015042635756515686      710.4894147316339
0.015232588937700405      710.5672572251788
0.015422109593635547      710.6292340318881
0.015611413609866287      710.6753451517625
0.015800717613118194      710.7055905848014
0.01599023823016135       710.7199703310051
0.01618019134667368       710.7184843903736
0.016370791378709844      710.7011327629068
0.016531080055689654      710.661723471353
0.01669098205584727       710.6191676280238
0.016850625763988217      710.5734652329194
0.017010140188576394      710.5246162860396
0.017169654651752998      710.4726207873847
0.017329298475565455      710.4174787369546
0.017489200668197463      710.3591901347493
0.01764948961399131       710.2977549807686
0.01780977395039525       710.2063980291443
0.017969673569674088      710.1040297593512
0.018129316344030533      709.9906501713897
0.01828883076335545       709.8662592652596
0.01844834562771156       709.7308570409608
0.01860798973608443       709.5844434984933
0.018767891575146484      709.4270186378574
0.018928179011779317      709.2585824590527
0.019118777792188433      708.9937492134418
0.019308729417401523      708.7073085823871
0.019498248522316707      708.3992605658884
0.019687551213036395      708.0696051639461
0.019876854336831753      707.71834237656
0.02006637473948738       707.3454722037299
0.020256328522671414      706.9509946454561
0.020446930313975188      706.5349097017386
0.02064970389860279       706.0473492300447
0.02085170019064286       705.5471536899473
0.02105317663162028       705.0343230814466
0.02125439265840668       704.5088574045423
0.021455608715167235      703.9707566592346
0.02165708524595088       703.4200208455236
0.021859081687282764      702.856649963409
0.02206185548011769       702.2806440128912
0.022264629246980954      701.7173217582637
0.022466625662635346      701.1648048365668
0.022668102167939252      700.6230932478
0.022869318199320136      700.0921869919638
0.023070534200728618      699.572086069058
0.023272010616231548      699.0627904790827
0.023474006882602858      698.5643002220376
0.02367678044127098       698.076615297923
0.02386738056353977       697.6069283957552
0.024057333744723106      697.1701032785562
0.02424685440065687       696.7661399463257
0.024436158416886237      696.3950383990639
0.02462546242013677       696.0567986367708
0.024814983037178547      695.7514206594464
0.025004936153689494      695.4789044670906
0.025195536185724256      695.2392500597035
0.0253558248627017        695.0297675867055
0.025515726862856965      694.84836059621
0.025675370570995573      694.6950290882176
0.02583488499558142       694.5697730627278
0.02599439945875569       694.4725925197408
0.02615404328256581       694.4034874592568
0.026313945475195465      694.3624578812754
0.026474234420986946      694.349503785797
0.026634518757392422      694.3592184618303
0.02679441837667279       694.3932358177653
0.026954061151030752      694.4515558536029
0.02711357557035719       694.5341785693425
0.027273090434714816      694.6411039649843
0.027432734543089202      694.7723320405281
0.027592636382152785      694.927862795974
0.02775292381878715       695.107696231322
0.02794352259919713       695.3289306637569
0.02813347422441108       695.5814650653361
0.028322993329327112      695.8652994360593
0.028512296020047647      696.1804337759266
0.02870159914384385       696.5268680849382
0.028891119546500334      696.9046023630939
0.02908107332968523       697.3136366103937
0.029271675120989875      697.7539708268378
0.02947444870561504       698.2425125901409
0.029676444997652693      698.7403247308877
0.02987792143862772       699.2474072490779
0.030079137465411736      699.7637601447118
0.030280353522169904      700.2893834177892
0.030481830052951155      700.8242770683099
0.030683826494280624      701.3684410962743
0.030886600287113104      701.9218755016822
0.03108937405397396       702.4691241146865
0.03129137046962597       703.0109549799243
0.03149284697492751       703.5473680973956
0.03169406300630604       704.0783634671005
0.03189527900771217       704.6039410890388
0.03209675542321274       705.1241009632106
0.03229875168958166       705.6388430896158
0.03250152524824737       706.1481674682545
0.03269212537051706       706.5593074037727
0.03288207855170127       706.9473571801847
0.033071599207635916      707.3123167974902
0.033260903223866156      707.6541862556895
0.033450207227117564      707.9729655547823
0.033639727844160215      708.2686546947688
0.03382968096067204       708.5412536756487
0.034020280992707694      708.7907624974224
0.034180569669686675      708.9703139928125
0.03434047166984347       709.1377839635533
0.0345001153779836        709.2931724096442
0.03465962980257096       709.4364793310857
0.03481914426574675       709.5677047278775
0.034978788089558385      709.6868486000195
0.03513869028218957       709.7939109475121
0.035298979227982585      709.888891770355
