% Model:              brazing.mph
% Version:            COMSOL 5.3.0.223
% Date:               Oct 24 2018, 06:45
% Dimension:          1
% Nodes:              225
% Expressions:        1
% Description:        Line graph
% x                       Height
0                         721.1497685045053
2.3022181212578358E-4     720.9890750889117
4.5999325066962656E-4     720.7991959180247
6.894940081029028E-4      720.5801309918445
9.189044129547812E-4      720.3318803103712
0.001148405006736289      720.0544438736048
0.0013781761183620641     719.7478216815447
0.001608397441069865      719.4120137341918
0.001839314118928521      718.6568864728505
0.0020697760201574002     717.9035676929321
0.002299964597801726      717.1520573944362
0.0025300619515304015     716.4023555773626
0.0027602503975112853     715.6544622417122
0.0029907120357255193     714.9083773874838
0.003221628319839081      714.1641010146784
0.0034518885683530987     713.1946150992472
0.0036816980188178403     712.2130772777392
0.003911236592567028      711.2194875501538
0.004140684848157368      710.2138459164912
0.004370223557282477      709.1961523767519
0.004600033278179856      708.1664069309351
0.004830293931548535      707.1246095790414
0.005060048526376791      705.8976740926926
0.005289355629682316      704.6815744563066
0.005518393850920054      703.4763106698833
0.005747342428834         702.2818827334231
0.00597638081262499       701.0982906469259
0.006205688240655705      699.925534410391
0.006435443321622868      698.7636140238192
0.006665339619110656      697.5242408074063
0.006894787442849326      696.3050830873626
0.007123965728649401      695.1061408636883
0.007353054043912613      693.9274141363836
0.007582232167524012      692.7689029054487
0.007811679667266285      691.630607170883
0.008041575479707366      690.5125269326868
0.008271887219609135      689.3922716327253
0.008501747728772392      688.3098491225562
0.008731337046705121      687.2652594021793
0.008960835851156599      686.2585024715949
0.009190425033567954      685.2895783308029
0.009420285272008154      684.358486979803
0.009650596606620833      683.4652284185958
0.009881512912836019      682.6050497637269
0.010111974573021956      681.7982245724794
0.010342163040896366      681.044752844853
0.010572260416492441      680.3446345808476
0.010802449016030204      679.6978697804636
0.011032910939230619      679.1044584437004
0.011263827639190652      678.5644005705585
0.011494048967061755      678.0521381213828
0.011723820083820682      677.6220585502355
0.011953320682717213      677.2741618571163
0.012182731092678062      677.0084480420256
0.012412231855226382      676.8249171049636
0.012642003298903411      676.7235690459295
0.012872225116192546      676.7044038649241
0.013102446994778118      676.5253744284333
0.013332218499393473      676.4516256277749
0.01356171932266464       676.4831574629485
0.013791129793276359      676.6199699339542
0.01402063045289555       676.8620630407925
0.014250401630592404      677.2094367834626
0.014480623019759359      677.662091161965
0.014711539835704642      677.9332645324953
0.014942001874208778      678.2939593508542
0.015172190588640395      678.7441756170416
0.01540228807899374       679.2839133310578
0.015632476661762654      679.913172492903
0.015862938437253588      680.6319531025764
0.01609385485945594       681.4402551600787
0.016324115336228646      682.1605408654685
0.016553925013622208      682.9232724717599
0.016783463813500554      683.7284499789522
0.017012912294953733      684.5760733870455
0.01724245123020976       685.4661426960404
0.01747226117803945       686.3986579059359
0.017702522059672054      687.373619016733
0.017932276794613372      688.3574668015849
0.018161584037218948      689.3683919146499
0.018390622397267263      690.4063943559275
0.018619571113827754      691.471474125418
0.018848609636427344      692.5636312231215
0.019077917203754128      693.6828656490375
0.019307672424828403      694.8291774031665
0.019537568573699274      695.8854731835454
0.01976701624968263       696.9563155822217
0.019996194388245302      698.041704599195
0.020225282556443316      699.1416402344655
0.020454460532815345      700.2561224880336
0.02068390788479834       701.3851513598984
0.020913803548616574      702.5287268500606
0.02114411498977932       703.4623729688946
0.021373975201947604      704.4071004198436
0.02160356422393484       705.362909202907
0.02183306273279162       706.3297993180852
0.02206265161925901       707.3077707653786
0.02229251156070728       708.2968235447863
0.02252282259658549       709.296957656309
0.022753738766914562      709.967656210369
0.022984200292012823      710.6367725454346
0.023214388625279938      711.304306661506
0.023444485866429166      711.9702585585833
0.023674674331359946      712.6346282366666
0.023905136119473275      713.2974156957553
0.024136052683548088      713.95862093585
0.024366274021741702      714.2131804328001
0.024596045148762867      714.46717927821
0.024825545757885373      714.7206174720792
0.02505495617806012       714.9734950144082
0.02528445695083446       715.225811905197
0.025514228404773787      715.4775681444451
0.025744450232385536      715.728763732153
0.025974672267095825      715.5928833250323
0.026204443926923768      715.4358735629087
0.02643394490485871       715.2577344457824
0.02666335552995085       715.0584659736531
0.026892856344233315      714.8380681465213
0.02712262767714175       714.5965409643863
0.02735284922243193       714.3338844272487
0.027583766528201624      713.6418387493361
0.027814229053652367      712.9409898713926
0.028044418253299775      712.2313377934182
0.02827451622829193       711.512882515413
0.028504705296278778      710.7856240373773
0.028735167558720572      710.0495623593104
0.028966084470753738      709.3046974812129
0.029196345605491433      708.3804364455123
0.02942615593701711       707.4225117733594
0.02965569538872289       706.4309234647545
0.029885144521236064      705.4056715196978
0.030114684108324883      704.3467559381893
0.030344494710297387      703.2541767202283
0.030574756249911007      702.1279338658156
0.030804511377321087      700.9101544239877
0.031033819010118435      699.6822932870284
0.031262857758987544      698.4443504549378
0.03149180686390927       697.1963259277157
0.031720845775323685      695.9382197053628
0.031950153732830305      694.6700317878781
0.032179909346355486      693.3917621752623
0.0324098051544111        692.1322440660786
0.032639252491552244      690.8808235107963
0.03286843029245836       689.6375005094152
0.0330975181233935        688.4022750619356
0.03332669576210278       687.1751471683579
0.03355614277523119       685.9561168286809
0.033786038098215655      684.7451840429057
0.034016348759356954      683.5925225489691
0.03424620819605658       682.4775838034403
0.034475796445315066      681.4003678063191
0.03470529418235937       680.3608745576056
0.03493488229610333       679.3591040572999
0.035164741462093585      678.3950563054017
0.03539505171796626       677.4687313019112
0.035625967353597694      676.6134250117434
0.03585642834714083       675.8193860175667
0.036086616150743635      675.0866143193805
0.03631671286286018       674.4151099171853
0.03654690079812825       673.8048728109814
0.036777362054689705      673.2559030007678
0.03700827808407173       672.7682004865455
0.03723849938140827       672.3397714593063
0.03746827046781093       672.0004237739461
0.03769777103645843       671.7501574304646
0.03792718141620601       671.588972428862
0.0381566821485052        671.5168687691386
0.03838645356182577       671.5338464512935
0.03861667534858004       671.6399054753276
0.038846895274787324      671.6434845823767
0.039076664838430766      671.7569070366218
0.03930616372759302       671.9801728380627
0.03953557226638858       672.3132819866993
0.039765070991905134      672.7562344825322
0.039994840228642616      673.3090303255607
0.040225059665450036      673.9716695157852
0.04045597761776665       674.5152149000307
0.04068644078597457       675.1487007977978
0.04091663062609736       675.8721272090859
0.041146729240799984      676.6854941338951
0.04137691894925231       677.5888015722259
0.04160738185443156       678.5820495240773
0.04183829941298208       679.6652379894504
0.04206856149768976       680.6960768764195
0.04229837277362926       681.7662003442684
0.04252791316640542       682.8756083929972
0.04275736323887129       684.0243010226055
0.04298690376702529       685.2122782330938
0.04321671531340127       686.4395400244616
0.04344697780296935       687.7060863967093
0.043676731016186174      689.0347260258824
0.04390603674591497       690.3721627539186
0.04413507359840861       691.7183965808183
0.04436402080919017       693.0734275065814
0.044593057824233256      694.4372555312083
0.04482236387867965       695.8098806546981
0.045052117578024006      697.1913028770516
0.045282012653644836      698.5815487875242
0.045511459262636354      699.9530515457092
0.04574063633797325       701.3058111516062
0.04596972344420469       702.6398276052156
0.046198900357357554      703.9551009065376
0.046428346642361965      705.2516310555716
0.04665824123294997       706.5294180523181
0.04688855484177433       707.7206994168002
0.04711841720894409       708.8852843751688
0.04734800837831597       710.0231729274237
0.04757750903201372       711.1343650735649
0.047807100065861544      712.2188608135931
0.04803696216230292       713.2766601475071
0.04826727536583021       714.3077630753078
0.048498193048686675      715.1263585314753
0.048728656077441146      715.9141888809753
0.04895884590902903       716.6712541238081
0.04918894464672031       717.3975542599737
0.04941913460997818       718.0930892894726
0.04964959790176041       718.7578592123037
0.04988051597838159       719.3918640284679
0.05011073543954296       719.6882886764135
0.0503405047004922        719.9696148453315
0.05057000345013497       720.2358425352216
0.05079941201302823       720.4869717460841
0.05102891092631677       720.7230024779191
0.05125868051417213       720.943934730726
0.051488900464733596      721.1497685045053
