% Model:              brazing.mph
% Version:            COMSOL 5.3.0.223
% Date:               Oct 24 2018, 05:20
% Dimension:          1
% Nodes:              193
% Expressions:        1
% Description:        Line graph
% x                       Height
0                         653.2136514791316
1.6028433640637486E-4     653.2944845511178
3.201839556876346E-4      653.367641690809
4.7982673004648776E-4     653.4331228982052
6.393411493738095E-4      653.4909281733064
7.988560137323205E-4      653.5410575161127
9.58500122107595E-4       653.5835109266241
0.0011184019611720658     653.6182884048403
0.0012786893978073315     653.6453899507617
0.0014692881782178572     653.665768595788
0.0016592398034323465     653.6690739362194
0.0018487589083489172     653.6553059720558
0.00203806159906999       653.6244647032975
0.0022273647228667317     653.5765501299442
0.0024168851255237504     653.511562251996
0.002606838908709185      653.4295010694528
0.0027974407000143733     653.3303665823149
0.003000214284638094      653.2011471878367
0.0032022105766743216     653.0569528788312
0.003403687017647933      652.8977836552986
0.0036049030444305387     652.7236395172388
0.0038061191011872996     652.5345204646517
0.004007595631967136      652.3304264975375
0.00420959207329518       652.1113576158959
0.00441236586612622       651.8773138197272
0.004615139632985625      651.6154850571637
0.004817136048636202      651.3499379605892
0.005018612553936322      651.0806725300033
0.005219828585313435      650.8076887654064
0.005421044586718146      650.5309866667984
0.0056225210022172924     650.2505662341792
0.005824517268584787      649.9664274675489
0.006027290827249049      649.6785703669075
0.006217890949519272      649.3798610289343
0.006407844130704021      649.099534945276
0.0065973647866391935     648.8375921159327
0.00678666880286996       648.5940325409042
0.006975972806121895      648.3688562201908
0.007165493423165078      648.1620631537922
0.007355446539677438      647.9736533417087
0.007546046571713631      647.80362678394
0.00770633524869351       647.6763281397238
0.007866237248851195      647.5663329130997
0.008025880956992212      647.4736411040677
0.008185395381580456      647.3982527126278
0.008344909844757132      647.3401677387801
0.008504553668569658      647.2993861825242
0.008664455861201733      647.2759080438607
0.008824744806995652      647.2697333227892
0.008985029143401957      647.2826491099275
0.009144928762683142      647.3174991869836
0.009304571537041926      647.374283553958
0.009464085956369179      647.4530022108501
0.00962360082072762       647.5536551576602
0.009783244929102828      647.6762423943882
0.009943146768167231      647.8207639210342
0.010103434204802428      647.9872197375981
0.010294032985212885      648.175747779296
0.010483984610427306      648.3842366322178
0.01067350371534381       648.6126862963642
0.010862806406064813      648.8610967717347
0.011052109529861487      649.1294680583293
0.011241629932518437      649.4178001561482
0.011431583715703804      649.7260930651914
0.011622185507008923      650.0543467854588
0.011824959091632737      650.3814879397814
0.012026955383669057      650.7009643404923
0.012228431824642762      651.0127759875912
0.01242964785142546       651.3169228810785
0.012630863908182311      651.6134050209541
0.012832340438962243      651.902222407218
0.01303433688029038       652.1833750398703
0.013237110673121513      652.4568629189107
0.013439884439981065      652.7099842557114
0.013641880855631786      652.9434530113606
0.013843357360932049      653.1572691858584
0.014044573392309304      653.3514327792044
0.014245789393714157      653.525943791399
0.014447265809213447      653.6808022224419
0.014649262075581083      653.8160080723333
0.01485203563424549       653.9315613410731
0.015042635756515686      654.027785050047
0.015232588937700405      654.1071642887591
0.015422109593635547      654.1696990572093
0.015611413609866287      654.2153893553976
0.015800717613118194      654.244235183324
0.01599023823016135       654.2562365409887
0.01618019134667368       654.2513934283913
0.016370791378709844      654.2297058455322
0.016531080055689654      654.1856610276061
0.01669098205584727       654.1378762136926
0.016850625763988217      654.0863514037915
0.017010140188576394      654.0310865979029
0.017169654651752998      653.9720817960268
0.017329298475565455      653.9093369981633
0.017489200668197463      653.8428522043123
0.01764948961399131       653.7726274144737
0.01780977395039525       653.671661638702
0.017969673569674088      653.558897970265
0.018129316344030533      653.4343364091627
0.01828883076335545       653.2979769553951
0.01844834562771156       653.1498196089624
0.01860798973608443       652.9898643698642
0.018767891575146484      652.8181112381009
0.018928179011779317      652.6345602136723
0.019118777792188433      652.3535583687615
0.019308729417401523      652.0501856137028
0.019498248522316707      651.7244419484954
0.019687551213036395      651.37632737314
0.019876854336831753      651.0058418876364
0.02006637473948738       650.6129854919847
0.020256328522671414      650.1977581861847
0.020446930313975188      649.7601599702366
0.02064970389860279       649.2440794393547
0.02085170019064286       648.7151710871539
0.02105317663162028       648.173434913634
0.02125439265840668       647.6188709187953
0.021455608715167235      647.0514791026377
0.02165708524595088       646.4712594651612
0.021859081687282764      645.8782120063657
0.02206185548011769       645.2723367262514
0.022264629246980954      644.674982435665
0.022466625662635346      644.089379085785
0.022668102167939252      643.5155266766112
0.022869318199320136      642.9534252081439
0.023070534200728618      642.403074680383
0.023272010616231548      641.8644750933286
0.023474006882602858      641.3376264469804
0.02367678044127098       640.8225287413387
0.02386738056353977       640.3271351572613
0.024057333744723106      639.8659983785543
0.02424685440065687       639.4391184052181
0.024436158416886237      639.0464952372524
0.02462546242013677       638.6881288746573
0.024814983037178547      638.3640193174328
0.025004936153689494      638.0741665655789
0.025195536185724256      637.8185706190956
0.0253558248627017        637.5970770531918
0.025515726862856965      637.4048572503245
0.025675370570995573      637.2419112104938
0.02583488499558142       637.1082389336995
0.02599439945875569       637.0038404199416
0.02615404328256581       636.9287156692204
0.026313945475195465      636.8828646815357
0.026474234420986946      636.8662874568876
0.026634518757392422      636.8735898517792
0.02679441837667279       636.9064901045715
0.026954061151030752      636.9649882152644
0.02711357557035719       637.0490841838576
0.027273090434714816      637.1587780103515
0.027432734543089202      637.2940696947459
0.027592636382152785      637.4549592370407
0.02775292381878715       637.6414466372361
0.02794352259919713       637.8724790136548
0.02813347422441108       638.1364401678305
0.028322993329327112      638.4333300997632
0.028512296020047647      638.7631488094529
0.02870159914384385       639.1258962968996
0.028891119546500334      639.5215725621033
0.02908107332968523       639.950177605064
0.029271675120989875      640.4117114257817
0.02947444870561504       640.9213521238476
0.029676444997652693      641.4416869981366
0.02987792143862772       641.9727160486489
0.030079137465411736      642.5144392753845
0.030280353522169904      643.0668566783434
0.030481830052951155      643.6299682575254
0.030683826494280624      644.2037740129308
0.030886600287113104      644.7882739445595
0.03108937405397396       645.3639351548851
0.03129137046962597       645.9336893296704
0.03149284697492751       646.4975364689149
0.03169406300630604       647.0554765726189
0.03189527900771217       647.6075096407823
0.03209675542321274       648.1536356734052
0.03229875168958166       648.6938546704876
0.03250152524824737       649.2281666320293
0.03269212537051706       649.662800345869
0.03288207855170127       650.0733875452497
0.033071599207635916      650.4599282301716
0.033260903223866156      650.8224224006345
0.033450207227117564      651.1608700566385
0.033639727844160215      651.4752711981837
0.03382968096067204       651.7656258252698
0.034020280992707694      652.0319339378971
0.034180569669686675      652.2238141919892
0.03434047166984347       652.4030757142418
0.0345001153779836        652.569718504655
0.03465962980257096       652.723742563229
0.03481914426574675       652.8651478899637
0.034978788089558385      652.993934484859
0.03513869028218957       653.110102347915
0.035298979227982585      653.2136514791316
