% Model:              brazing.mph
% Version:            COMSOL 5.3.0.223
% Date:               Oct 24 2018, 02:16
% Dimension:          1
% Nodes:              225
% Expressions:        1
% Description:        Line graph
% x                       Height
0                         768.3745464014979
2.3022181212578358E-4     768.1911897631163
4.5999325066962656E-4     767.9832200322852
6.894940081029028E-4      767.7506372090046
9.189044129547812E-4      767.4934412932749
0.001148405006736289      767.211632285096
0.0013781761183620641     766.9052101844671
0.001608397441069865      766.5741749913892
0.001839314118928521      765.7833606518569
0.0020697760201574002     764.9976522632209
0.002299964597801726      764.2170498254808
0.0025300619515304015     763.4415533386367
0.0027602503975112853     762.6711628026891
0.0029907120357255193     761.905878217637
0.003221628319839081      761.1456995834814
0.0034518885683530987     760.1433081602257
0.0036816980188178403     759.125556782789
0.003911236592567028      758.0924454511709
0.004140684848157368      757.0439741653719
0.004370223557282477      755.9801429253922
0.004600033278179856      754.900951731231
0.004830293931548535      753.8064005828891
0.005060048526376791      752.5367335612128
0.005289355629682316      751.2758692105402
0.005518393850920054      750.0238075308706
0.005747342428834         748.7805485222046
0.00597638081262499       747.5460921845421
0.006205688240655705      746.3204385178826
0.006435443321622868      745.1035875222267
0.006665339619110656      743.8188405575905
0.006894787442849326      742.5522288507722
0.007123965728649401      741.3037524017712
0.007353054043912613      740.0734112105882
0.007582232167524012      738.8612052772231
0.007811679667266285      737.6671346016753
0.008041575479707366      736.4911991839456
0.008271887219609135      735.3226349562976
0.008501747728772392      734.1912597077965
0.008731337046705121      733.0970734384425
0.008960835851156599      732.0400761482354
0.009190425033567954      731.0202678371757
0.009420285272008154      730.0376485052625
0.009650596606620833      729.0922181524966
0.009881512912836019      728.1869180829898
0.010111974573021956      727.335354024166
0.010342163040896366      726.5375259760248
0.010572260416492441      725.7934339385662
0.010802449016030204      725.1030779117908
0.011032910939230619      724.4664578956978
0.011263827639190652      723.8835738902876
0.011494048967061755      723.3311488594097
0.011723820083820682      722.8646793145581
0.011953320682717213      722.4841652557329
0.012182731092678062      722.1896066829344
0.012412231855226382      721.9810035961626
0.012642003298903411      721.8583559954168
0.012872225116192546      721.8216638806977
0.013102446994778118      721.5973649146251
0.013332218499393473      721.4859248335085
0.01356171932266464       721.4873436373473
0.013791129793276359      721.6016213261421
0.01402063045289555       721.8287578998929
0.014250401630592404      722.1687533585991
0.014480623019759359      722.6216077022613
0.014711539835704642      722.8641928737167
0.014942001874208778      723.2025475810108
0.015172190588640395      723.6366718241442
0.01540228807899374       724.1665656031162
0.015632476661762654      724.7922289179276
0.015862938437253588      725.5136617685774
0.01609385485945594       726.3308641550665
0.016324115336228646      727.0480365133549
0.016553925013622208      727.8082625760181
0.016783463813500554      728.6115423430568
0.017012912294953733      729.4578758144703
0.01724245123020976       730.3472629902593
0.01747226117803945       731.2797038704231
0.017702522059672054      732.255198454962
0.017932276794613372      733.2504097303622
0.018161584037218948      734.272309329328
0.018390622397267263      735.3208972518594
0.018619571113827754      736.3961734979564
0.018848609636427344      737.4981380676196
0.019077917203754128      738.6267909608479
0.019307672424828403      739.782132177642
0.019537568573699274      740.8595962429326
0.01976701624968263       741.9498916615332
0.019996194388245302      743.0530184334435
0.020225282556443316      744.1689765586642
0.020454460532815345      745.2977660371952
0.02068390788479834       746.4393868690358
0.020913803548616574      747.5938390541867
0.02114411498977932       748.5472141700578
0.021373975201947604      749.5100857956159
0.02160356422393484       750.482453930861
0.02183306273279162       751.4643185757933
0.02206265161925901       752.455679730413
0.02229251156070728       753.4565373947195
0.02252282259658549       754.4668915687131
0.022753738766914562      755.151600848934
0.022984200292012823      755.8331751469008
0.023214388625279938      756.5116144626135
0.023444485866429166      757.1869187960718
0.023674674331359946      757.8590881472768
0.023905136119473275      758.528122516227
0.024136052683548088      759.1940219029235
0.024366274021741702      759.4495298106093
0.024596045148762867      759.7067189546889
0.024825545757885373      759.9655893351629
0.02505495617806012       760.2261409520307
0.02528445695083446       760.4883738052932
0.025514228404773787      760.7522878949495
0.025744450232385536      761.017883221
0.025974672267095825      760.8483878429121
0.026204443926923768      760.6647139803064
0.02643394490485871       760.4668616331832
0.02666335552995085       760.2548308015424
0.026892856344233315      760.0286214853844
0.02712262767714175       759.7882336847084
0.02735284922243193       759.5336673995151
0.027583766528201624      758.8049463757776
0.027814229053652367      758.0733871208266
0.028044418253299775      757.338989634662
0.02827451622829193       756.6017539172841
0.028504705296278778      755.861679968693
0.028735167558720572      755.1187677888882
0.028966084470753738      754.37301737787
0.029196345605491433      753.4254370050609
0.02942615593701711       752.443376801651
0.02965569538872289       751.4268367676406
0.029885144521236064      750.3758169030298
0.030114684108324883      749.2903172078187
0.030344494710297387      748.1703376820067
0.030574756249911007      747.0158783255944
0.030804511377321087      745.7793916316202
0.031033819010118435      744.5316574927658
0.031262857758987544      743.2726759090309
0.03149180686390927       742.002446880416
0.031720845775323685      740.7209704069211
0.031950153732830305      739.4282464885455
0.032179909346355486      738.12427512529
0.0324098051544111        736.8513627877351
0.032639252491552244      735.5854223744815
0.03286843029245836       734.3264538855288
0.0330975181233935        733.0744573208774
0.03332669576210278       731.8294326805275
0.03355614277523119       730.5913799644782
0.033786038098215655      729.3602991727302
0.034016348759356954      728.1990674457397
0.03424620819605658       727.0757890967953
0.034475796445315066      725.9904641258969
0.03470529418235937       724.9430925330446
0.03493488229610333       723.9336743182388
0.035164741462093585      722.9622094814787
0.03539505171796626       722.0286980227648
0.035625967353597694      721.1743654621371
0.03585642834714083       720.3825278995341
0.036086616150743635      719.6531853349557
0.03631671286286018       718.9863377684017
0.03654690079812825       718.3819851998728
0.036777362054689705      717.8401276293681
0.03700827808407173       717.3607650568882
0.03723849938140827       716.9443076978246
0.03746827046781093       716.6207756214882
0.03769777103645843       716.3901688278794
0.03792718141620601       716.2524873169978
0.0381566821485052        716.207731088844
0.03838645356182577       716.2559001434171
0.03861667534858004       716.3969944807178
0.038846895274787324      716.4144110222602
0.039076664838430766      716.5483594266922
0.03930616372759302       716.7988396940134
0.03953557226638858       717.1658518242244
0.039765070991905134      717.6493958173253
0.039994840228642616      718.2494716733154
0.040225059665450036      718.9660793921952
0.04045597761776665       719.5409830908613
0.04068644078597457       720.2110418604705
0.04091663062609736       720.9762557010222
0.041146729240799984      721.836624612517
0.04137691894925231       722.7921485949548
0.04160738185443156       723.8428276483351
0.04183829941298208       724.9886617726584
0.04206856149768976       726.0736512293124
0.04229837277362926       727.1978687763607
0.04252791316640542       728.3613144138031
0.04275736323887129       729.56398814164
0.04298690376702529       730.8058899598716
0.04321671531340127       732.0870198684969
0.04344697780296935       733.4073778675167
0.043676731016186174      734.7988987634764
0.04390603674591497       736.1978179618632
0.04413507359840861       737.6041354626767
0.04436402080919017       739.017851265917
0.044593057824233256      740.4389653715848
0.04482236387867965       741.8674777796789
0.045052117578024006      743.3033884902003
0.045282012653644836      744.7593899993233
0.045511459262636354      746.1937886565864
0.04574063633797325       747.6065844619899
0.04596972344420469       748.9977774155334
0.046198900357357554      750.3673675172176
0.046428346642361965      751.7153547670417
0.04665824123294997       753.0417391650063
0.04688855484177433       754.2900083092619
0.04711841720894409       755.508439882046
0.04734800837831597       756.6970338833588
0.04757750903201372       757.8557903132004
0.047807100065861544      758.9847091715711
0.04803696216230292       760.0837904584699
0.04826727536583021       761.1530341738979
0.048498193048686675      762.0138881445722
0.048728656077441146      762.8408302052536
0.04895884590902903       763.6338603559419
0.04918894464672031       764.3929785966374
0.04941913460997818       765.1181849273404
0.04964959790176041       765.8094793480503
0.04988051597838159       766.4668618587674
0.05011073543954296       766.7850266147483
0.0503405047004922        767.0879785731514
0.05057000345013497       767.3757177339763
0.05079941201302823       767.6482440972235
0.05102891092631677       767.9055576628931
0.05125868051417213       768.1476584309843
0.051488900464733596      768.3745464014979
