% Model:              brazing.mph
% Version:            COMSOL 5.3.0.223
% Date:               Oct 24 2018, 01:36
% Dimension:          1
% Nodes:              225
% Expressions:        1
% Description:        Line graph
% x                       Height
0                         665.0374929718118
2.3022181212578358E-4     664.8990430868934
4.5999325066962656E-4     664.7346394379725
6.894940081029028E-4      664.5442820250496
9.189044129547812E-4      664.3279708481244
0.001148405006736289      664.0857059071975
0.0013781761183620641     663.8174872022679
0.001608397441069865      663.5233147333364
0.001839314118928521      662.8271130486594
0.0020697760201574002     662.1358271561975
0.002299964597801726      661.4494570559506
0.0025300619515304015     660.7680027479189
0.0027602503975112853     660.0914642321028
0.0029907120357255193     659.4198415085013
0.003221628319839081      658.7531345771154
0.0034518885683530987     657.8690744990264
0.0036816980188178403     656.9769816866715
0.003911236592567028      656.0768561400502
0.004140684848157368      655.1686978591629
0.004370223557282477      654.2525068440096
0.004600033278179856      653.3282830945898
0.004830293931548535      652.3960266109041
0.005060048526376791      651.2764266843864
0.005289355629682316      650.1697920736224
0.005518393850920054      649.0761227786121
0.005747342428834         647.9954187993557
0.00597638081262499       646.9276801358532
0.006205688240655705      645.872906788104
0.006435443321622868      644.8310987561089
0.006665339619110656      643.707365980468
0.006894787442849326      642.6043912166458
0.007123965728649401      641.5221744646424
0.007353054043912613      640.4607157244576
0.007582232167524012      639.4200149960918
0.007811679667266285      638.4000722795444
0.008041575479707366      637.4008875748158
0.008271887219609135      636.3936791644718
0.008501747728772392      635.4222634644307
0.008731337046705121      634.4866404746923
0.008960835851156599      633.5868101952568
0.009190425033567954      632.7227726261244
0.009420285272008154      631.8945277672946
0.009650596606620833      631.1020756187678
0.009881512912836019      630.3365181208362
0.010111974573021956      629.620233947965
0.010342163040896366      628.9532231001539
0.010572260416492441      628.3354855774031
0.010802449016030204      627.7670213797131
0.011032910939230619      627.2478305070829
0.011263827639190652      626.7779129595132
0.011494048967061755      626.3300818186276
0.011723820083820682      625.9580473857117
0.011953320682717213      625.6618096607654
0.012182731092678062      625.4413686437889
0.012412231855226382      625.2967243347824
0.012642003298903411      625.2278767337452
0.012872225116192546      625.234825840678
0.013102446994778118      625.0891543825803
0.013332218499393473      625.0407097657164
0.01356171932266464       625.0894919900863
0.013791129793276359      625.2355010556903
0.01402063045289555       625.4787369625282
0.014250401630592404      625.8191997105996
0.014480623019759359      626.2568892999051
0.014711539835704642      626.5190043539382
0.014942001874208778      626.864359335268
0.015172190588640395      627.2929542438941
0.01540228807899374       627.8047890798167
0.015632476661762654      628.3998638430361
0.015862938437253588      629.0781785335517
0.01609385485945594       629.839733151364
0.016324115336228646      630.5125513127202
0.016553925013622208      631.2250895406972
0.016783463813500554      631.9773478352951
0.017012912294953733      632.7693261965139
0.01724245123020976       633.6010246243538
0.01747226117803945       634.4724431188143
0.017702522059672054      635.3835816798959
0.017932276794613372      636.2959027358082
0.018161584037218948      637.2345970651056
0.018390622397267263      638.1996646677878
0.018619571113827754      639.191105543855
0.018848609636427344      640.2089196933074
0.019077917203754128      641.2531071161446
0.019307672424828403      642.3236678123669
0.019537568573699274      643.2982497764375
0.01976701624968263       644.2888494696743
0.019996194388245302      645.295466892077
0.020225282556443316      646.3181020436459
0.020454460532815345      647.3567549243813
0.02068390788479834       648.4114255342824
0.020913803548616574      649.4821138733499
0.02114411498977932       650.3387480011529
0.021373975201947604      651.2090429542192
0.02160356422393484       652.0929987325492
0.02183306273279162       652.9906153361425
0.02206265161925901       653.9018927649997
0.02229251156070728       654.8268310191199
0.02252282259658549       655.765430098504
0.022753738766914562      656.3722715963386
0.022984200292012823      656.9815549994388
0.023214388625279938      657.5932803078047
0.023444485866429166      658.2074475214364
0.023674674331359946      658.8240566403341
0.023905136119473275      659.4431076644973
0.024136052683548088      660.0646005939265
0.024366274021741702      660.2783685714394
0.024596045148762867      660.4950455323042
0.024825545757885373      660.714631476521
0.02505495617806012       660.9371264040901
0.02528445695083446       661.1625303150113
0.025514228404773787      661.3908432092842
0.025744450232385536      661.6220650869094
0.025974672267095825      661.4824668732206
0.026204443926923768      661.3232976949472
0.02643394490485871       661.1445575520893
0.02666335552995085       660.9462464446467
0.026892856344233315      660.7283643726199
0.02712262767714175       660.4909113360081
0.02735284922243193       660.2338873348122
0.027583766528201624      659.5701729128266
0.027814229053652367      658.8998330784315
0.028044418253299775      658.2228678316268
0.02827451622829193       657.5392771724123
0.028504705296278778      656.8490611007886
0.028735167558720572      656.1522196167549
0.028966084470753738      655.4487527203119
0.029196345605491433      654.579613997755
0.02942615593701711       653.680363240673
0.02965569538872289       652.7510004490659
0.029885144521236064      651.7915256229338
0.030114684108324883      650.8019387622771
0.030344494710297387      649.782239867095
0.030574756249911007      648.732428937388
0.030804511377321087      647.5908628261066
0.031033819010118435      646.4412893323238
0.031262857758987544      645.2837084560396
0.03149180686390927       644.1181201972543
0.031720845775323685      642.9445245559677
0.031950153732830305      641.7629215321797
0.032179909346355486      640.5733111258905
0.0324098051544111        639.3976085058107
0.032639252491552244      638.2300710347545
0.03286843029245836       637.0706987127217
0.0330975181233935        635.9194915397122
0.03332669576210278       634.7764495157267
0.03355614277523119       633.641572640764
0.033786038098215655      632.5148609148251
0.034016348759356954      631.4403450333724
0.03424620819605658       630.4005070339518
0.034475796445315066      629.3953469165633
0.03470529418235937       628.424864681207
0.03493488229610333       627.4890603278832
0.035164741462093585      626.5879338565909
0.03539505171796626       625.7214852673311
0.035625967353597694      624.9194002540149
0.03585642834714083       624.1732816258329
0.036086616150743635      623.483129382785
0.03631671286286018       622.8489435248713
0.03654690079812825       622.2707240520919
0.036777362054689705      621.7484709644463
0.03700827808407173       621.2821842619351
0.03723849938140827       620.8686602114357
0.03746827046781093       620.5372881615439
0.03769777103645843       620.2880681122596
0.03792718141620601       620.1210000635829
0.0381566821485052        620.036084015514
0.03838645356182577       620.0333199680524
0.03861667534858004       620.1127079211985
0.038846895274787324      620.0899652100323
0.039076664838430766      620.1694448630983
0.03930616372759302       620.3511468803962
0.03953557226638858       620.6350712619261
0.039765070991905134      621.0212180076885
0.039994840228642616      621.5095871176826
0.040225059665450036      622.1001785919088
0.04045597761776665       622.5705051143217
0.04068644078597457       623.1251749450486
0.04091663062609736       623.7641880840897
0.041146729240799984      624.4875445314451
0.04137691894925231       625.295244287115
0.04160738185443156       626.1872873510989
0.04183829941298208       627.1636737233971
0.04206856149768976       628.0841052757903
0.04229837277362926       629.0415642521016
0.04252791316640542       630.0360506523308
0.04275736323887129       631.0675644764777
0.04298690376702529       632.1361057245431
0.04321671531340127       633.2416743965259
0.04344697780296935       634.3842704924269
0.043676731016186174      635.5840454693773
0.04390603674591497       636.7930660416857
0.04413507359840861       638.0113322093517
0.04436402080919017       639.2388439723759
0.044593057824233256      640.4756013307583
0.04482236387867965       641.7216042844982
0.045052117578024006      642.9768528335962
0.045282012653644836      644.2381918039395
0.045511459262636354      645.4844431295962
0.04574063633797325       646.715606810566
0.04596972344420469       647.9316828468494
0.046198900357357554      649.1326712384464
0.046428346642361965      650.3185719853564
0.04665824123294997       651.4893850875799
0.04688855484177433       652.5735878237432
0.04711841720894409       653.6365295940111
0.04734800837831597       654.6782103983835
0.04757750903201372       655.6986302368603
0.047807100065861544      656.6977891094418
0.04803696216230292       657.6756870161274
0.04826727536583021       658.6323239569178
0.048498193048686675      659.3779640018771
0.048728656077441146      660.0998626169063
0.04895884590902903       660.7980198020051
0.04918894464672031       661.4724355571735
0.04941913460997818       662.123109882412
0.04964959790176041       662.75004277772
0.04988051597838159       663.3532342430977
0.05011073543954296       663.6219725062858
0.0503405047004922        663.8813341450165
0.05057000345013497       664.13131915929
0.05079941201302823       664.3719275491062
0.05102891092631677       664.6031593144654
0.05125868051417213       664.8250144553672
0.051488900464733596      665.0374929718118
