% Model:              brazing.mph
% Version:            COMSOL 5.3.0.223
% Date:               Oct 24 2018, 03:55
% Dimension:          1
% Nodes:              225
% Expressions:        1
% Description:        Line graph
% x                       Height
0                         736.2210947075039
2.3022181212578358E-4     736.0509674274082
4.5999325066962656E-4     735.848901618351
6.894940081029028E-4      735.6148972803319
9.189044129547812E-4      735.3489544133514
0.001148405006736289      735.0510730174095
0.0013781761183620641     734.7212530925055
0.001608397441069865      734.3594946386402
0.001839314118928521      733.5791876136194
0.0020697760201574002     732.7983319432751
0.002299964597801726      732.0169276276068
0.0025300619515304015     731.2349746666151
0.0027602503975112853     730.4524730602997
0.0029907120357255193     729.6694228086602
0.003221628319839081      728.8858239116972
0.0034518885683530987     727.8772285266053
0.0036816980188178403     726.8550439788
0.003911236592567028      725.8192702682811
0.004140684848157368      724.7699073950489
0.004370223557282477      723.7069553591035
0.004600033278179856      722.6304141604442
0.004830293931548535      721.5402837990717
0.005060048526376791      720.2648729440003
0.005289355629682316      718.9995928800582
0.005518393850920054      717.7444436072451
0.005747342428834         716.4994251255612
0.00597638081262499       715.2645374350067
0.006205688240655705      714.0397805355809
0.006435443321622868      712.8251544272845
0.006665339619110656      711.5338613983511
0.006894787442849326      710.2629692277097
0.007123965728649401      709.0124779153607
0.007353054043912613      707.7823874613035
0.007582232167524012      706.5726978655389
0.007811679667266285      705.383409128066
0.008041575479707366      704.2145212488855
0.008271887219609135      703.0449041277005
0.008501747728772392      701.9144481938629
0.008731337046705121      700.8231534473716
0.008960835851156599      699.7710198882274
0.009190425033567954      698.7580475164306
0.009420285272008154      697.78423633198
0.009650596606620833      696.8495863348767
0.009881512912836019      695.9501996765609
0.010111974573021956      695.1064227222639
0.010342163040896366      694.3182554719856
0.010572260416492441      693.5856979257264
0.010802449016030204      692.9087500834862
0.011032910939230619      692.2874119452646
0.011263827639190652      691.7216835110621
0.011494048967061755      691.1865641573787
0.011723820083820682      690.7364610808606
0.011953320682717213      690.3713742815074
0.012182731092678062      690.0913037593197
0.012412231855226382      689.8962495142977
0.012642003298903411      689.7862115464403
0.012872225116192546      689.7611898557485
0.013102446994778118      689.5777780194993
0.013332218499393473      689.5026688767906
0.01356171932266464       689.5358624276229
0.013791129793276359      689.6773586719958
0.01402063045289555       689.9271576099096
0.014250401630592404      690.285259241364
0.014480623019759359      690.7516635663593
0.014711539835704642      691.0387255614676
0.014942001874208778      691.4175940670347
0.015172190588640395      691.8882690830605
0.01540228807899374       692.4507506095455
0.015632476661762654      693.1050386464894
0.015862938437253588      693.851133193892
0.01609385485945594       694.6890342517536
0.016324115336228646      695.4413918975757
0.016553925013622208      696.2375216499499
0.016783463813500554      697.077423508876
0.017012912294953733      697.9610974743542
0.01724245123020976       698.8885435463847
0.01747226117803945       699.8597617249667
0.017702522059672054      700.8747520101009
0.017932276794613372      701.9006288340656
0.018161584037218948      702.95393773312
0.018390622397267263      704.0346787072641
0.018619571113827754      705.1428517564977
0.018848609636427344      706.2784568808213
0.019077917203754128      707.4414940802341
0.019307672424828403      708.6319633547366
0.019537568573699274      709.733191332337
0.01976701624968263       710.8483475080621
0.019996194388245302      711.9774318819123
0.020225282556443316      713.1204444538869
0.020454460532815345      714.2773852239867
0.02068390788479834       715.4482541922109
0.020913803548616574      716.6330513585601
0.02114411498977932       717.6086840213667
0.021373975201947604      718.5940967921814
0.02160356422393484       719.589289671005
0.02183306273279162       720.5942626578367
0.02206265161925901       721.6090157526771
0.02229251156070728       722.6335489555258
0.02252282259658549       723.667862266383
0.022753738766914562      724.3739904228212
0.022984200292012823      725.0764762337953
0.023214388625279938      725.7753196993058
0.023444485866429166      726.4705208193525
0.023674674331359946      727.1620795939356
0.023905136119473275      727.8499960230544
0.024136052683548088      728.5342701067096
0.024366274021741702      728.8148606132764
0.024596045148762867      729.092215079335
0.024825545757885373      729.3663335048849
0.02505495617806012       729.6372158899264
0.02528445695083446       729.9048622344596
0.025514228404773787      730.169272538484
0.025744450232385536      730.4304468020003
0.025974672267095825      730.3083652876804
0.026204443926923768      730.1624377637161
0.02643394490485871       729.9926642301074
0.02666335552995085       729.7990446868546
0.026892856344233315      729.5815791339578
0.02712262767714175       729.3402675714162
0.02735284922243193       729.0751099992308
0.027583766528201624      728.379426122033
0.027814229053652367      727.6720151915238
0.028044418253299775      726.9528772077022
0.02827451622829193       726.2220121705686
0.028504705296278778      725.4794200801238
0.028735167558720572      724.7251009363664
0.028966084470753738      723.9590547392975
0.029196345605491433      723.0114244165893
0.02942615593701711       722.0279600525718
0.02965569538872289       721.0086616472447
0.029885144521236064      719.9535292006079
0.030114684108324883      718.862562712662
0.030344494710297387      717.7357621834062
0.030574756249911007      716.5731276128411
0.030804511377321087      715.3170839913859
0.031033819010118435      714.0498273483063
0.031262857758987544      712.7713576836023
0.03149180686390927       711.4816749972742
0.031720845775323685      710.180779289322
0.031950153732830305      708.868670559745
0.032179909346355486      707.5453488085441
0.0324098051544111        706.2404624670355
0.032639252491552244      704.9436888854725
0.03286843029245836       703.6550280638546
0.0330975181233935        702.3744800021823
0.03332669576210278       701.1020447004556
0.03355614277523119       699.8377221586738
0.033786038098215655      698.5815123768376
0.034016348759356954      697.3841862686419
0.03424620819605658       696.2260965543102
0.034475796445315066      695.107243233842
0.03470529418235937       694.0276263072377
0.03493488229610333       692.9872457744975
0.035164741462093585      691.9861016356207
0.03539505171796626       691.0241938906079
0.035625967353597694      690.1352096224797
0.03585642834714083       689.3100674103304
0.036086616150743635      688.5487672541601
0.03631671286286018       687.8513091539689
0.03654690079812825       687.2176931097571
0.036777362054689705      686.6479191215238
0.03700827808407173       686.1419871892699
0.03723849938140827       685.6980965637057
0.03746827046781093       685.3463878993872
0.03769777103645843       685.0868611963145
0.03792718141620601       684.9195164544875
0.0381566821485052        684.8443536739068
0.03838645356182577       684.8613728545712
0.03861667534858004       684.9705739964817
0.038846895274787324      684.9800702589439
0.039076664838430766      685.1025125388716
0.03930616372759302       685.3379008362645
0.03953557226638858       685.6862351511228
0.039765070991905134      686.1475154834469
0.039994840228642616      686.7217418332359
0.040225059665450036      687.4089142004907
0.04045597761776665       687.9805287548247
0.04068644078597457       688.6443878685549
0.04091663062609736       689.4004915416807
0.041146729240799984      690.2488397742023
0.04137691894925231       691.1894325661203
0.04160738185443156       692.2222699174337
0.04183829941298208       693.3473518281432
0.04206856149768976       694.4227704651703
0.04229837277362926       695.5387551685898
0.04252791316640542       696.6953059384019
0.04275736323887129       697.8924227746063
0.04298690376702529       699.1301056772036
0.04321671531340127       700.408354646193
0.04344697780296935       701.7271696815751
0.043676731016186174      703.109059237333
0.04390603674591497       704.4997699369245
0.04413507359840861       705.8993017803494
0.04436402080919017       707.307654767608
0.044593057824233256      708.7248288987007
0.04482236387867965       710.1508241736266
0.045052117578024006      711.5856405923864
0.045282012653644836      713.0282993795378
0.045511459262636354      714.4507580813034
0.04574063633797325       715.8530166976834
0.04596972344420469       717.2350752286775
0.046198900357357554      718.5969336742863
0.046428346642361965      719.938592034509
0.04665824123294997       721.2600503093463
0.04688855484177433       722.4933410470583
0.04711841720894409       723.6975489846395
0.04734800837831597       724.87267412209
0.04757750903201372       726.0187164594096
0.047807100065861544      727.1356759965989
0.04803696216230292       728.2235527336571
0.04826727536583021       729.2823466705848
0.048498193048686675      730.1272540502334
0.048728656077441146      730.9381469260838
0.04895884590902903       731.7150252981352
0.04918894464672031       732.4578891663882
0.04941913460997818       733.1667385308428
0.04964959790176041       733.8415733914984
0.04988051597838159       734.4823937483557
0.05011073543954296       734.7852245985406
0.0503405047004922        735.0699071157661
0.05057000345013497       735.3364413000324
0.05079941201302823       735.5848271513391
0.05102891092631677       735.8150646696869
0.05125868051417213       736.027153855075
0.051488900464733596      736.2210947075039
