% Model:              brazing.mph
% Version:            COMSOL 5.3.0.223
% Date:               Oct 24 2018, 03:58
% Dimension:          1
% Nodes:              193
% Expressions:        1
% Description:        Line graph
% x                       Height
0                         656.7021697714183
1.6028433640637486E-4     656.7907653547948
3.201839556876346E-4      656.8712415882427
4.7982673004648776E-4     656.9435984717619
6.393411493738095E-4      657.0078360053528
7.988560137323205E-4      657.0639541890151
9.58500122107595E-4       657.1119530227489
0.0011184019611720658     657.1518325065541
0.0012786893978073315     657.1835926404309
0.0014692881782178572     657.2102969219279
0.0016592398034323465     657.2206268953845
0.0018487589083489172     657.214582560801
0.00203806159906999       657.192163918177
0.0022273647228667317     657.1533709675127
0.0024168851255237504     657.098203708808
0.002606838908709185      657.0266621420631
0.0027974407000143733     656.9387462672777
0.003000214284638094      656.8182614998316
0.0032022105766743216     656.6833603580038
0.003403687017647933      656.5340428417948
0.0036049030444305387     656.370308951204
0.0038061191011872996     656.1921586862318
0.004007595631967136      655.9995920468781
0.00420959207329518       655.7926090331428
0.00441236586612622       655.571209645026
0.004615139632985625      655.3252511499708
0.004817136048636202      655.0756766571818
0.005018612553936322      654.8224861666591
0.005219828585313435      654.5656796784028
0.005421044586718146      654.3052571924128
0.0056225210022172924     654.0412187086889
0.005824517268584787      653.7735642272314
0.006027290827249049      653.5022937480401
0.006217890949519272      653.2209900809089
0.006407844130704021      652.9566498870241
0.0065973647866391935     652.7092731663859
0.00678666880286996       652.4788599189941
0.006975972806121895      652.2654101448487
0.007165493423165078      652.0689238439498
0.007355446539677438      651.8894010162973
0.007546046571713631      651.7268416618913
0.00770633524869351       651.6039847491643
0.007866237248851195      651.4973936227873
0.008025880956992212      651.4070682827604
0.008185395381580456      651.3330087290836
0.008344909844757132      651.275214961757
0.008504553668569658      651.2336869807804
0.008664455861201733      651.2084247861538
0.008824744806995652      651.1994283778774
0.008985029143401957      651.2073741169795
0.009144928762683142      651.2358530257006
0.009304571537041926      651.2848651040405
0.009464085956369179      651.3544103519993
0.00962360082072762       651.4444887695769
0.009783244929102828      651.5551003567733
0.009943146768167231      651.6862451135888
0.010103434204802428      651.837923040023
0.010294032985212885      652.0097260411674
0.010483984610427306      652.1999924164505
0.01067350371534381       652.4087221658722
0.010862806406064813      652.6359152894327
0.011052109529861487      652.8815717871317
0.011241629932518437      653.1456916589697
0.011431583715703804      653.4282749049461
0.011622185507008923      653.7293215250612
0.011824959091632737      654.0282636332443
0.012026955383669057      654.3201850565499
0.012228431824642762      654.6050857949783
0.01242964785142546       654.8829658485294
0.012630863908182311      655.1538252172029
0.012832340438962243      655.4176639009992
0.01303433688029038       655.6744818999181
0.013237110673121513      655.9242792139596
0.013439884439981065      656.155623720804
0.013641880855631786      656.36851989147
0.013843357360932049      656.5629677259577
0.014044573392309304      656.738967224267
0.014245789393714157      656.8965183863979
0.014447265809213447      657.0356212123506
0.014649262075581083      657.156275702125
0.01485203563424549       657.2584818557209
0.015042635756515686      657.3404547399266
0.015232588937700405      657.4064141604827
0.015422109593635547      657.4563601173885
0.015611413609866287      657.4902926106447
0.015800717613118194      657.5082116402509
0.01599023823016135       657.5101172062073
0.01618019134667368       657.4960093085136
0.016370791378709844      657.4658879471702
0.016531080055689654      657.4163505531337
0.01669098205584727       657.3623935123516
0.016850625763988217      657.3040168248234
0.017010140188576394      657.2412204905496
0.017169654651752998      657.1740045095302
0.017329298475565455      657.1023688817648
0.017489200668197463      657.0263136072539
0.01764948961399131       656.945838685997
0.01780977395039525       656.8390157188385
0.017969673569674088      656.720662530062
0.018129316344030533      656.5907791196676
0.01828883076335545       656.4493654876553
0.01844834562771156       656.2964216340251
0.01860798973608443       656.1319475587771
0.018767891575146484      655.9559432619113
0.018928179011779317      655.7684087434275
0.019118777792188433      655.4901157168517
0.019308729417401523      655.1909692154558
0.019498248522316707      654.8709692392395
0.019687551213036395      654.5301157882031
0.019876854336831753      654.1684088623466
0.02006637473948738       653.78584846167
0.020256328522671414      653.382434586173
0.020446930313975188      652.958167235856
0.02064970389860279       652.4570983003871
0.02085170019064286       651.944212741689
0.02105317663162028       651.4195105597611
0.02125439265840668       650.8829917546041
0.021455608715167235      650.3346563262176
0.02165708524595088       649.7745042746017
0.021859081687282764      649.2025355997564
0.02206185548011769       648.6187503016818
0.022264629246980954      648.0422746799818
0.022466625662635346      647.4776638473024
0.022668102167939252      646.9249178036437
0.022869318199320136      646.3840365490055
0.023070534200728618      645.855020083388
0.023272010616231548      645.3378684067911
0.023474006882602858      644.8325815192148
0.02367678044127098       644.3391594206591
0.02386738056353977       643.8647938444674
0.024057333744723106      643.4234624708914
0.02424685440065687       643.0151652999316
0.024436158416886237      642.6399023315876
0.02462546242013677       642.2976735658596
0.024814983037178547      641.9884790027475
0.025004936153689494      641.7123186422515
0.025195536185724256      641.4691924843713
0.0253558248627017        641.2588776937403
0.025515726862856965      641.0769132619146
0.025675370570995573      640.9232991888941
0.02583488499558142       640.7980354746791
0.02599439945875569       640.7011221192694
0.02615404328256581       640.6325591226649
0.026313945475195465      640.5923464848659
0.026474234420986946      640.580484205872
0.026634518757392422      640.5906591081163
0.02679441837667279       640.6258092457125
0.026954061151030752      640.6859346186609
0.02711357557035719       640.7710352269614
0.027273090434714816      640.8811110706141
0.027432734543089202      641.0161621496189
0.027592636382152785      641.1761884639758
0.02775292381878715       641.3611900136849
0.02794352259919713       641.5892347936892
0.02813347422441108       641.8490328377069
0.028322993329327112      642.1405841457374
0.028512296020047647      642.4638887177814
0.02870159914384385       642.8189465538385
0.028891119546500334      643.2057576539088
0.02908107332968523       643.6243220179923
0.029271675120989875      644.0746396460889
0.02947444870561504       644.5698795716288
0.029676444997652693      645.0760298832009
0.02987792143862772       645.5930905808049
0.030079137465411736      646.1210616644412
0.030280353522169904      646.6599431341097
0.030481830052951155      647.2097349898103
0.030683826494280624      647.7704372315429
0.030886600287113104      648.3420498593078
0.03108937405397396       648.9058566003578
0.03129137046962597       649.4643700427272
0.03149284697492751       650.0175901864163
0.03169406300630604       650.565517031425
0.03189527900771217       651.1081505777531
0.03209675542321274       651.6454908254009
0.03229875168958166       652.1775377743683
0.03250152524824737       652.7042914246551
0.03269212537051706       653.1301989784536
0.03288207855170127       653.5336978263529
0.033071599207635916      653.9147879683534
0.033260903223866156      654.273469404455
0.033450207227117564      654.6097421346576
0.033639727844160215      654.9236061589612
0.03382968096067204       655.2150614773659
0.034020280992707694      655.4841080898717
0.034180569669686675      655.680311504659
0.03434047166984347       655.863959003848
0.0345001153779836        656.0350505874388
0.03465962980257096       656.1935862554312
0.03481914426574675       656.3395660078254
0.034978788089558385      656.4729898446213
0.03513869028218957       656.5938577658189
0.035298979227982585      656.7021697714183
