% Model:              brazing.mph
% Version:            COMSOL 5.3.0.223
% Date:               Oct 24 2018, 03:36
% Dimension:          1
% Nodes:              145
% Expressions:        1
% Description:        Line graph
% x                       Height
0                         634.2209726511516
1.8037553861809572E-4     634.4715199984836
3.5951128344368776E-4     634.6699357581067
5.377561773732229E-4      634.8162199300212
7.154644111300318E-4      634.9103725142272
8.929933875627798E-4      634.9523935107244
0.0010707015910786408     634.942282919513
0.0012489464247083767     634.8800407405928
0.0014280820795340731     634.7656669739639
0.0016084574989771061     634.5991616196264
0.0017793134314883058     634.5321810984057
0.0019491114898538484     634.4411153841041
0.002118149876008701      634.3259644767224
0.0022867308232763497     634.1867283762602
0.002455159027530182      634.0234070827177
0.0026237400128558564     633.8360005960948
0.0027927784749207734     633.6245089163913
0.0029625766466419693     633.3889320436074
0.0031334327293582195     633.1292699777431
0.0033042867504275058     632.9527785041677
0.0034740828875811486     632.7715372553412
0.0036431193341009516     632.585546231264
0.0038116983146850476     632.3948054319358
0.003980124516686077      632.1993148573566
0.004148703455848711      631.9990745075265
0.004317739819749776      631.7940843824455
0.004487535833529769      631.5843444821135
0.004658389691119368      631.3698548065307
0.0048387629974717405     631.245709720175
0.005017896580971026      631.1272029770018
0.005196139373513023      631.0143345770119
0.0053738455543625        630.9071045202047
0.005551372514551955      630.8055128065805
0.005729078726427549      630.7095594361393
0.005907321580834967      630.619244408881
0.006086455256670912      630.5345677248055
0.006266828685292636      630.4555293839129
0.0064472042239161545     630.5961672870592
0.0066263399687470585     630.7453937521657
0.00680458486268183       630.9032087792327
0.0069822930964438265     631.06961236826
0.007159822072881748      631.2446045192476
0.007337530276402798      631.4281852321953
0.007515775110037768      631.6203545071036
0.007694910764868775      631.821112343972
0.007875286184317232      632.0304587428009
0.008046142116827224      632.2968616684365
0.008215940175191578      632.5554346802411
0.008384978561345261      632.8061777782151
0.008553559508611747      633.0490909623585
0.008721987712864422      633.284174232671
0.008890568698188937      633.511427589153
0.00905960716025268       633.7308510318043
0.009229405331972688      633.9424445606246
0.009400261414687729      634.1462081756144
0.009571115435747398      634.4588955287659
0.009740911572891598      634.7426750285979
0.009909948019402086      634.9975466751109
0.010078526999976944      635.2235104683048
0.010246953201968763      635.4205664081795
0.010415532141122159      635.5887144947351
0.010584568505013912      635.7279547279715
0.010754364518784467      635.8382871078887
0.010925218376364454      635.9197116344868
0.011105591682722255      636.0780280056701
0.01128472526622686       636.1913549695802
0.011462968058774099      636.2596925262176
0.011640674239628768      636.2830406755818
0.011818201199823401      636.261399417673
0.01199590741170419       636.1947687524913
0.012174150266116847      636.0831486800365
0.012353283941958112      635.9265392003088
0.012533657370585264      635.7249403133079
0.01271403176453574       635.6831342121937
0.012893166387683227      635.5888368640148
0.013071410176518557      635.4420482687713
0.013249117315197753      635.2427684264629
0.013426645199902413      634.9909973370898
0.013604352308338922      634.6867350006521
0.01378259603687098       634.3299814171495
0.013961730570013379      633.9207365865823
0.014142104844781908      633.4590005089503
0.014312959944399205      633.0645657473048
0.014482757184992078      632.646678200847
0.014651794764271453      632.2053378695774
0.014820374911240972      631.740544753496
0.014988802317395246      631.2522988526024
0.01515738250242126       630.740600166897
0.015326420157607648      630.2054486963797
0.015496217511551624      629.6468444410502
0.015667072761367945      629.0647874009089
0.01583792791479403       628.5555392772255
0.016007725163749622      628.0543035165595
0.01617676270725794       627.5610801189111
0.01634534277588875       627.0758690842802
0.016513770062946447      626.5986704126668
0.01668235009015449       626.1294841040709
0.016851387551041475      625.6683101584927
0.017021184676619543      625.2151485759318
0.017192039666560827      624.7699993563886
0.017372413817338207      624.3998255225283
0.017551548228302124      624.0560518795154
0.017729791836073705      623.7386784273505
0.017907498824762332      623.4477051660331
0.018085026590318725      623.1831320955633
0.018262733610032132      622.9449592159414
0.018440977279666457      622.7331865271668
0.018620111782963036      622.5478140292399
0.018800486056004474      622.3888417221608
0.018980860449944497      622.4704937725567
0.019159995073081745      622.5837580903088
0.019338238861906984      622.7286346754178
0.01951594600057618       622.9051235278831
0.019693473885270874      623.1132246477051
0.019871180993697383      623.3529380348837
0.020049424722219357      623.6242636894186
0.02022855925535152       623.9272016113101
0.0204089335301096        624.2617518005584
0.02057978862980686       624.6554937017045
0.020749585870478253      625.0528109232905
0.020918623449835097      625.4537034653171
0.021087203596881453      625.8581713277837
0.021255631003112355      626.2662145106905
0.021424211188215206      626.6778330140374
0.021593248843479067      627.0930268378247
0.021763046197501558      627.5117959820519
0.02193390144739785       627.9341404467195
0.022104756600747556      628.4912762221492
0.02227455384962815       629.0235822306663
0.02244359139306247       629.5310584722712
0.022612171461619885      630.0137049469638
0.022780598748604386      630.4715216547439
0.022949178775739036      630.9045085956116
0.02311821623655202       631.3126657695669
0.023288013362055097      631.6959931766099
0.023458868351919994      632.0544908167406
0.02363924250270423       632.4774944375647
0.023818376913674867      632.8549272041384
0.023996620521453065      633.1867891164624
0.02417432751014825       633.4730801745359
0.02435185527571118       633.7138003783593
0.024529562295431146      633.9089497279326
0.02470780596507209       634.0585282232558
0.024886940468375387      634.1625358643287
0.025067314741423676      634.2209726511516
