% Model:              brazing.mph
% Version:            COMSOL 5.3.0.223
% Date:               Oct 24 2018, 05:24
% Dimension:          1
% Nodes:              145
% Expressions:        1
% Description:        Line graph
% x                       Height
0                         1460.3291430128384
1.8037553861809572E-4     1460.5673210044683
3.5951128344368776E-4     1460.7576048275382
5.377561773732229E-4      1460.899994482048
7.154644111300318E-4      1460.9944899679967
8.929933875627798E-4      1461.0410912853858
0.0010707015910786408     1461.0397984342148
0.0012489464247083767     1460.9906114144828
0.0014280820795340731     1460.8935302261907
0.0016084574989771061     1460.7485548693385
0.0017793134314883058     1460.697209884912
0.0019491114898538484     1460.6241211022198
0.002118149876008701      1460.5292885212625
0.0022867308232763497     1460.4127121420397
0.002455159027530182      1460.2743919645513
0.0026237400128558564     1460.1143279887974
0.0027927784749207734     1459.932520214778
0.0029625766466419693     1459.7289686424929
0.0031334327293582195     1459.5036732719423
0.0033042867504275058     1459.367460501705
0.0034740828875811486     1459.22522251381
0.0036431193341009516     1459.0769593082578
0.0038116983146850476     1458.9226708850474
0.003980124516686077      1458.7623572441798
0.004148703455848711      1458.5960183856541
0.004317739819749776      1458.4236543094712
0.004487535833529769      1458.2452650156301
0.004658389691119368      1458.0608505041318
0.0048387629974717405     1457.9615856733162
0.005017896580971026      1457.8624264346095
0.005196139373513023      1457.7633727880116
0.0053738455543625        1457.664424733522
0.005551372514551955      1457.5655822711415
0.005729078726427549      1457.4668454008697
0.005907321580834967      1457.3682141227064
0.006086455256670912      1457.269688436652
0.006266828685292636      1457.1712683427063
0.0064472042239161545     1457.2961204593312
0.0066263399687470585     1457.424621510052
0.00680458486268183       1457.5567714948702
0.0069822930964438265     1457.6925704137843
0.007159822072881748      1457.8320182667953
0.007337530276402798      1457.9751150539023
0.007515775110037768      1458.1218607751061
0.007694910764868775      1458.2722554304064
0.007875286184317232      1458.426299019803
0.008046142116827224      1458.631918442616
0.008215940175191578      1458.8289835306737
0.008384978561345261      1459.0174942839772
0.008553559508611747      1459.1974507025257
0.008721987712864422      1459.3688527863192
0.008890568698188937      1459.5317005353577
0.00905960716025268       1459.6859939496417
0.009229405331972688      1459.8317330291702
0.009400261414687729      1459.9689177739447
0.009571115435747398      1460.2219176238304
0.009740911572891598      1460.449727619607
0.009909948019402086      1460.652347761276
0.010078526999976944      1460.829778048836
0.010246953201968763      1460.9820184822875
0.010415532141122159      1461.1090690616306
0.010584568505013912      1461.210929786865
0.010754364518784467      1461.2876006579904
0.010925218376364454      1461.339081675008
0.011105591682722255      1461.4620079360311
0.01128472526622686       1461.5464335506422
0.011462968058774099      1461.5923585188407
0.011640674239628768      1461.599782840628
0.011818201199823401      1461.5687065160023
0.01199590741170419       1461.499129544965
0.012174150266116847      1461.391051927515
0.012353283941958112      1461.244473663653
0.012533657370585264      1461.0593947533794
0.01271403176453574       1461.0520401924923
0.012893166387683227      1460.9985913849655
0.013071410176518557      1460.899048330799
0.013249117315197753      1460.7534110299935
0.013426645199902413      1460.5616794825478
0.013604352308338922      1460.3238536884628
0.01378259603687098       1460.039933647738
0.013961730570013379      1459.7099193603735
0.014142104844781908      1459.3338108263702
0.014312959944399205      1459.020766377856
0.014482757184992078      1458.6875312037491
0.014651794764271453      1458.3341053040494
0.014820374911240972      1457.960488678757
0.014988802317395246      1457.5666813278713
0.01515738250242126       1457.1526832513932
0.015326420157607648      1456.718494449322
0.015496217511551624      1456.264114921658
0.015667072761367945      1455.789544668401
0.01583792791479403       1455.396428916898
0.016007725163749622      1455.0083148814479
0.01617676270725794       1454.6252025620502
0.01634534277588875       1454.2470919587054
0.016513770062946447      1453.8739830714126
0.01668235009015449       1453.5058759001731
0.016851387551041475      1453.1427704449857
0.017021184676619543      1452.7846667058507
0.017192039666560827      1452.431564682769
0.017372413817338207      1452.1506675242658
0.017551548228302124      1451.8873375460544
0.017729791836073705      1451.641574748135
0.017907498824762332      1451.413379130508
0.018085026590318725      1451.2027506931731
0.018262733610032132      1451.0096894361304
0.018440977279666457      1450.8341953593795
0.018620111782963036      1450.6762684629202
0.018800486056004474      1450.5359087467536
0.018980860449944497      1450.6360468932485
0.019159995073081745      1450.7586694323368
0.019338238861906984      1450.903776364019
0.01951594600057618       1451.0713676882947
0.019693473885270874      1451.2614434051643
0.019871180993697383      1451.4740035146278
0.020049424722219357      1451.7090480166848
0.02022855925535152       1451.9665769113358
0.0204089335301096        1452.2465901985806
0.02057978862980686       1452.5790738924402
0.020749585870478253      1452.9108599939696
0.020918623449835097      1453.24194850317
0.021087203596881453      1453.5723394200409
0.021255631003112355      1453.902032744582
0.021424211188215206      1454.2310284767932
0.021593248843479067      1454.5593266166748
0.021763046197501558      1454.8869271642266
0.02193390144739785       1455.213830119449
0.022104756600747556      1455.6848858721628
0.02227455384962815       1456.1330356589574
0.02244359139306247       1456.5582794798333
0.022612171461619885      1456.9606173347897
0.022780598748604386      1457.3400492238275
0.022949178775739036      1457.696575146946
0.02311821623655202       1458.0301951041456
0.023288013362055097      1458.340909095426
0.023458868351919994      1458.6287171207873
0.02363924250270423       1458.978815593462
0.023818376913674867      1459.2886235005249
0.023996620521453065      1459.5581408419766
0.02417432751014825       1459.787367617816
0.02435185527571118       1459.976303828044
0.024529562295431146      1460.1249494726603
0.02470780596507209       1460.2333045516648
0.024886940468375387      1460.3013690650573
0.025067314741423676      1460.3291430128384
