% Model:              brazing.mph
% Version:            COMSOL 5.3.0.223
% Date:               Oct 24 2018, 06:43
% Dimension:          1
% Nodes:              145
% Expressions:        1
% Description:        Line graph
% x                       Height
0                         694.3443016153802
1.8037553861809572E-4     694.6092281126654
3.5951128344368776E-4     694.8194187499818
5.377561773732229E-4      694.9748735273298
7.154644111300318E-4      695.0755924447091
8.929933875627798E-4      695.1215755021198
0.0010707015910786408     695.1128226995619
0.0012489464247083767     695.0493340370354
0.0014280820795340731     694.9311095145404
0.0016084574989771061     694.7581491320766
0.0017793134314883058     694.6912081248203
0.0019491114898538484     694.5992754674596
0.002118149876008701      694.4823511599951
0.0022867308232763497     694.3404352024266
0.002455159027530182      694.173527594754
0.0026237400128558564     693.9816283369772
0.0027927784749207734     693.7647374290966
0.0029625766466419693     693.5228548711118
0.0031334327293582195     693.255980663023
0.0033042867504275058     693.0822953311837
0.0034740828875811486     692.9030172026412
0.0036431193341009516     692.7181462773959
0.0038116983146850476     692.5276825554477
0.003980124516686077      692.3316260367965
0.004148703455848711      692.1299767214425
0.004317739819749776      691.9227346093853
0.004487535833529769      691.7098997006253
0.004658389691119368      691.4914719951624
0.0048387629974717405     691.3707349397309
0.005017896580971026      691.2537990544148
0.005196139373513023      691.1406643392145
0.0053738455543625        691.0313307941296
0.005551372514551955      690.9257984191604
0.005729078726427549      690.8240672143068
0.005907321580834967      690.7261371795685
0.006086455256670912      690.6320083149459
0.006266828685292636      690.541680620439
0.0064472042239161545     690.6919919937707
0.0066263399687470585     690.8495126188913
0.00680458486268183       691.0142424958015
0.0069822930964438265     691.1861816245008
0.007159822072881748      691.3653300049895
0.007337530276402798      691.5516876372674
0.007515775110037768      691.7452545213342
0.007694910764868775      691.9460306571907
0.007875286184317232      692.1540160448363
0.008046142116827224      692.4229893530855
0.008215940175191578      692.6830423651222
0.008384978561345261      692.9341750809468
0.008553559508611747      693.1763875005593
0.008721987712864422      693.4096796239594
0.008890568698188937      693.6340514511473
0.00905960716025268       693.8495029821231
0.009229405331972688      694.0560342168862
0.009400261414687729      694.2536451554375
0.009571115435747398      694.5727179320102
0.009740911572891598      694.8618466081695
0.009909948019402086      695.1210311839161
0.010078526999976944      695.3502716592498
0.010246953201968763      695.5495680341704
0.010415532141122159      695.718920308678
0.010584568505013912      695.8583284827728
0.010754364518784467      695.9677925564542
0.010925218376364454      696.0473125297231
0.011105591682722255      696.207679165595
0.01128472526622686       696.3218669967592
0.011462968058774099      696.3898760232164
0.011640674239628768      696.411706244966
0.011818201199823401      696.3873576620082
0.01199590741170419       696.3168302743429
0.012174150266116847      696.2001240819703
0.012353283941958112      696.0372390848902
0.012533657370585264      695.8281752831026
0.01271403176453574       695.7999768588604
0.012893166387683227      695.7172706186481
0.013071410176518557      695.5800565624663
0.013249117315197753      695.3883346903147
0.013426645199902413      695.1421050021933
0.013604352308338922      694.841367498102
0.01378259603687098       694.4861221780408
0.013961730570013379      694.0763690420099
0.014142104844781908      693.6121080900092
0.014312959944399205      693.2196219608577
0.014482757184992078      692.8028886089819
0.014651794764271453      692.3619080343824
0.014820374911240972      691.8966802370588
0.014988802317395246      691.4072052170111
0.01515738250242126       690.8934829742395
0.015326420157607648      690.3555135087438
0.015496217511551624      689.793296820524
0.015667072761367945      689.2068329095804
0.01583792791479403       688.7034516913627
0.016007725163749622      688.2071572923846
0.01617676270725794       687.7179497126466
0.01634534277588875       687.2358289521483
0.016513770062946447      686.7607950108899
0.01668235009015449       686.2928478888712
0.016851387551041475      685.8319875860924
0.017021184676619543      685.3782141025532
0.017192039666560827      684.9315274382541
0.017372413817338207      684.5670168589982
0.017551548228302124      684.226985349952
0.017729791836073705      683.911432911116
0.017907498824762332      683.6203595424898
0.018085026590318725      683.3537652440738
0.018262733610032132      683.1116500158676
0.018440977279666457      682.8940138578713
0.018620111782963036      682.7008567700851
0.018800486056004474      682.5321787525089
0.018980860449944497      682.6248160101925
0.019159995073081745      682.7475717388013
0.019338238861906984      682.9004459383359
0.01951594600057618       683.0834386087959
0.019693473885270874      683.2965497501813
0.019871180993697383      683.5397793624923
0.020049424722219357      683.8131274457285
0.02022855925535152       684.1165939998904
0.0204089335301096        684.4501790249778
0.02057978862980686       684.8476117939539
0.020749585870478253      685.2468321895901
0.020918623449835097      685.6478402118867
0.021087203596881453      686.0506358608437
0.021255631003112355      686.455219136461
0.021424211188215206      686.8615900387384
0.021593248843479067      687.2697485676763
0.021763046197501558      687.6796947232745
0.02193390144739785       688.091428505533
0.022104756600747556      688.6548168993374
0.02227455384962815       689.1920783125724
0.02244359139306247       689.7032127452385
0.022612171461619885      690.1882201973352
0.022780598748604386      690.6471006688629
0.022949178775739036      691.0798541598215
0.02311821623655202       691.4864806702107
0.023288013362055097      691.8669802000305
0.023458868351919994      692.2213527492816
0.02363924250270423       692.6453152898515
0.023818376913674867      693.0222579971148
0.023996620521453065      693.3521808710719
0.02417432751014825       693.6350839117227
0.02435185527571118       693.870967119067
0.024529562295431146      694.0598304931051
0.02470780596507209       694.2016740338363
0.024886940468375387      694.2964977412615
0.025067314741423676      694.3443016153802
