% Model:              brazing.mph
% Version:            COMSOL 5.3.0.223
% Date:               Oct 24 2018, 04:08
% Dimension:          1
% Nodes:              145
% Expressions:        1
% Description:        Line graph
% x                       Height
0                         788.8544725018013
1.8037553861809572E-4     789.1006311790212
3.5951128344368776E-4     789.2964427142173
5.377561773732229E-4      789.44190710739
7.154644111300318E-4      789.537024358539
8.929933875627798E-4      789.5817944676645
0.0010707015910786408     789.5762174347666
0.0012489464247083767     789.5202932598448
0.0014280820795340731     789.4140219428995
0.0016084574989771061     789.2574034839307
0.0017793134314883058     789.198790638566
0.0019491114898538484     789.1172732960575
0.002118149876008701      789.0128514564061
0.0022867308232763497     788.8855251196109
0.002455159027530182      788.7352942856722
0.0026237400128558564     788.5621589545905
0.0027927784749207734     788.3661191263647
0.0029625766466419693     788.1471748009957
0.0031334327293582195     787.9053259784833
0.0033042867504275058     787.7517939791288
0.0034740828875811486     787.5927351235274
0.0036431193341009516     787.4281494116796
0.0038116983146850476     787.258036843585
0.003980124516686077      787.0823974192441
0.004148703455848711      786.9012311386563
0.004317739819749776      786.714538001822
0.004487535833529769      786.5223180087411
0.004658389691119368      786.3245711594135
0.0048387629974717405     786.2161498541035
0.005017896580971026      786.110002376584
0.005196139373513023      786.0061287268553
0.0053738455543625        785.9045289049174
0.005551372514551955      785.8052029107699
0.005729078726427549      785.7081507444133
0.005907321580834967      785.6133724058469
0.006086455256670912      785.5208678950715
0.006266828685292636      785.4306372120869
0.0064472042239161545     785.5664976569971
0.0066263399687470585     785.707970907859
0.00680458486268183       785.855056964674
0.0069822930964438265     786.0077558274412
0.007159822072881748      786.1660674961607
0.007337530276402798      786.3299919708328
0.007515775110037768      786.4995292514569
0.007694910764868775      786.6746793380338
0.007875286184317232      786.855442230563
0.008046142116827224      787.0911897289806
0.008215940175191578      787.3184906397536
0.008384978561345261      787.5373449628822
0.008553559508611747      787.7477526983668
0.008721987712864422      787.9497138462067
0.008890568698188937      788.1432284064025
0.00905960716025268       788.3282963789537
0.009229405331972688      788.5049177638604
0.009400261414687729      788.6730925611229
0.009571115435747398      788.9564973101602
0.009740911572891598      789.2127454403377
0.009909948019402086      789.441836951656
0.010078526999976944      789.6437718441149
0.010246953201968763      789.8185501177144
0.010415532141122159      789.9661717724542
0.010584568505013912      790.0866368083347
0.010754364518784467      790.1799452253555
0.010925218376364454      790.2460970235171
0.011105591682722255      790.3870884691484
0.01128472526622686       790.4863104412701
0.011462968058774099      790.5437629398824
0.011640674239628768      790.559445964985
0.011818201199823401      790.5333595165781
0.01199590741170419       790.465503594662
0.012174150266116847      790.3558781992359
0.012353283941958112      790.2044833303006
0.012533657370585264      790.0113189878556
0.01271403176453574       789.9922495291452
0.012893166387683227      789.9236860010845
0.013071410176518557      789.8056284036737
0.013249117315197753      789.6380767369129
0.013426645199902413      789.4210310008021
0.013604352308338922      789.1544911953409
0.01378259603687098       788.8384573205295
0.013961730570013379      788.4729293763681
0.014142104844781908      788.0579073628568
0.014312959944399205      787.7091751461575
0.014482757184992078      787.3385847122755
0.014651794764271453      786.9461360612114
0.014820374911240972      786.5318291929647
0.014988802317395246      786.0956641075355
0.01515738250242126       785.637640804924
0.015326420157607648      785.15775928513
0.015496217511551624      784.6560195481533
0.015667072761367945      784.1324215939945
0.01583792791479403       783.6883278799722
0.016007725163749622      783.250315980984
0.01617676270725794       782.81838589703
0.01634534277588875       782.3925376281101
0.016513770062946447      781.9727711742242
0.01668235009015449       781.5590865353728
0.016851387551041475      781.151483711555
0.017021184676619543      780.7499627027718
0.017192039666560827      780.3545235090224
0.017372413817338207      780.0342448784667
0.017551548228302124      779.7349330102862
0.017729791836073705      779.4565879044818
0.017907498824762332      779.199209561053
0.018085026590318725      778.9627979799997
0.018262733610032132      778.7473531613224
0.018440977279666457      778.5528751050202
0.018620111782963036      778.3793638110941
0.018800486056004474      778.2268192795435
0.018980860449944497      778.3191043654932
0.019159995073081745      778.4375397544144
0.019338238861906984      778.5821254463075
0.01951594600057618       778.7528614411725
0.019693473885270874      778.9497477390092
0.019871180993697383      779.1727843398177
0.020049424722219357      779.421971243598
0.02022855925535152       779.6973084503501
0.0204089335301096        779.9987959600741
0.02057978862980686       780.3571677201461
0.020749585870478253      780.7163302055466
0.020918623449835097      781.0762834162759
0.021087203596881453      781.437027352334
0.021255631003112355      781.7985620137207
0.021424211188215206      782.1608874004361
0.021593248843479067      782.5240035124804
0.021763046197501558      782.8879103498533
0.02193390144739785       783.2526079125549
0.022104756600747556      783.7612920468194
0.02227455384962815       784.2459677282324
0.02244359139306247       784.7066349567943
0.022612171461619885      785.143293732505
0.022780598748604386      785.5559440553644
0.022949178775739036      785.9445859253727
0.02311821623655202       786.3092193425297
0.023288013362055097      786.6498443068355
0.023458868351919994      786.9664608182899
0.02363924250270423       787.34778492862
0.023818376913674867      787.6862227803537
0.023996620521453065      787.9817743734917
0.02417432751014825       788.2344397080334
0.02435185527571118       788.4442187839792
0.024529562295431146      788.6111116013288
0.02470780596507209       788.7351181600824
0.024886940468375387      788.81623846024
0.025067314741423676      788.8544725018013
