% Model:              brazing.mph
% Version:            COMSOL 5.3.0.223
% Date:               Oct 24 2018, 00:25
% Dimension:          1
% Nodes:              145
% Expressions:        1
% Description:        Line graph
% x                       Height
0                         644.5036899025309
1.8037553861809572E-4     644.7776142630568
3.5951128344368776E-4     644.9949801310585
5.377561773732229E-4      645.1557875065366
7.154644111300318E-4      645.260036389491
8.929933875627798E-4      645.3077267799213
0.0010707015910786408     645.2988586778278
0.0012489464247083767     645.2334320832103
0.0014280820795340731     645.1114469960689
0.0016084574989771061     644.9329034164039
0.0017793134314883058     644.8627905529647
0.0019491114898538484     644.7666153285664
0.002118149876008701      644.6443777432094
0.0022867308232763497     644.4960777968931
0.002455159027530182      644.3217154896179
0.0026237400128558564     644.1212908213837
0.0027927784749207734     643.8948037921903
0.0029625766466419693     643.6422544020379
0.0031334327293582195     643.3636426509265
0.0033042867504275058     643.1774178417056
0.0034740828875811486     642.9857917771999
0.0036431193341009516     642.7887644574098
0.0038116983146850476     642.5863358823353
0.003980124516686077      642.3785060519763
0.004148703455848711      642.1652749663327
0.004317739819749776      641.9466426254045
0.004487535833529769      641.7226090291919
0.004658389691119368      641.4931741776948
0.0048387629974717405     641.3637366535493
0.005017896580971026      641.2396814274555
0.005196139373513023      641.1210084994137
0.0053738455543625        641.0077178694238
0.005551372514551955      640.8998095374857
0.005729078726427549      640.7972835035994
0.005907321580834967      640.7001397677648
0.006086455256670912      640.6083783299822
0.006266828685292636      640.5219991902514
0.0064472042239161545     640.676916646765
0.0066263399687470585     640.8404902817774
0.00680458486268183       641.0127200952888
0.0069822930964438265     641.1936060872994
0.007159822072881748      641.3831482578087
0.007337530276402798      641.5813466068171
0.007515775110037768      641.7882011343243
0.007694910764868775      642.0037118403305
0.007875286184317232      642.2278787248357
0.008046142116827224      642.5152736589849
0.008215940175191578      642.7938167435775
0.008384978561345261      643.063507978614
0.008553559508611747      643.3243473640941
0.008721987712864422      643.5763349000179
0.008890568698188937      643.8194705863853
0.00905960716025268       644.0537544231962
0.009229405331972688      644.2791864104507
0.009400261414687729      644.4957665481489
0.009571115435747398      644.8328160760691
0.009740911572891598      645.1385138530924
0.009909948019402086      645.4128598792194
0.010078526999976944      645.6558541544497
0.010246953201968763      645.8674966787834
0.010415532141122159      646.0477874522205
0.010584568505013912      646.1967264747611
0.010754364518784467      646.3143137464049
0.010925218376364454      646.4005492671523
0.011105591682722255      646.569960230072
0.01128472526622686       646.6908262880135
0.011462968058774099      646.763147440977
0.011640674239628768      646.786923688963
0.011818201199823401      646.7621550319708
0.01199590741170419       646.6888414700009
0.012174150266116847      646.5669830030529
0.012353283941958112      646.3965796311269
0.012533657370585264      646.1776313542232
0.01271403176453574       646.1355525522323
0.012893166387683227      646.0366594737332
0.013071410176518557      645.8809521187263
0.013249117315197753      645.6684304872114
0.013426645199902413      645.3990945791884
0.013604352308338922      645.0729443946575
0.01378259603687098       644.6899799336186
0.013961730570013379      644.2502011960717
0.014142104844781908      643.7536081820167
0.014312959944399205      643.3308925187002
0.014482757184992078      642.8828429194001
0.014651794764271453      642.4094593841168
0.014820374911240972      641.91074191285
0.014988802317395246      641.3866905055995
0.01515738250242126       640.8373051623656
0.015326420157607648      640.2625858831482
0.015496217511551624      639.6625326679473
0.015667072761367945      639.0371455167631
0.01583792791479403       638.4933982379334
0.016007725163749622      637.9578247885805
0.01617676270725794       637.4304251687048
0.01634534277588875       636.9111993783063
0.016513770062946447      636.4001474173843
0.01668235009015449       635.8972692859397
0.016851387551041475      635.402564983972
0.017021184676619543      634.916034511481
0.017192039666560827      634.4376778684673
0.017372413817338207      634.0431381848006
0.017551548228302124      633.6760762553819
0.017729791836073705      633.3364920802118
0.017907498824762332      633.02438565929
0.018085026590318725      632.7397569926167
0.018262733610032132      632.4826060801917
0.018440977279666457      632.2529329220149
0.018620111782963036      632.0507375180865
0.018800486056004474      631.8760198684065
0.018980860449944497      631.9650978029567
0.019159995073081745      632.0874114161621
0.019338238861906984      632.2429607080231
0.01951594600057618       632.4317456785394
0.019693473885270874      632.6537663277111
0.019871180993697383      632.9090226555381
0.020049424722219357      633.1975146620204
0.02022855925535152       633.5192423471581
0.0204089335301096        633.8742057109512
0.02057978862980686       634.2955429107662
0.020749585870478253      634.7201006797437
0.020918623449835097      635.1478790178842
0.021087203596881453      635.5788779251873
0.021255631003112355      636.0130974016531
0.021424211188215206      636.4505374472817
0.021593248843479067      636.8911980620729
0.021763046197501558      637.3350792460269
0.02193390144739785       637.7821809991436
0.022104756600747556      638.3792633659857
0.02227455384962815       638.9494952648525
0.02244359139306247       639.4928766957444
0.022612171461619885      640.0094076586612
0.022780598748604386      640.4990881536028
0.022949178775739036      640.9619181805693
0.02311821623655202       641.3978977395608
0.023288013362055097      641.807026830577
0.023458868351919994      642.1893054536182
0.02363924250270423       642.64267487357
0.023818376913674867      643.0469903954478
0.023996620521453065      643.4022520192522
0.02417432751014825       643.708459744983
0.02435185527571118       643.9656135726399
0.024529562295431146      644.1737135022232
0.02470780596507209       644.3327595337328
0.024886940468375387      644.4427516671685
0.025067314741423676      644.5036899025309
