% Model:              brazing.mph
% Version:            COMSOL 5.3.0.223
% Date:               Oct 24 2018, 05:34
% Dimension:          1
% Nodes:              193
% Expressions:        1
% Description:        Line graph
% x                       Height
0                         639.6668389477169
1.6028433640637486E-4     639.7520478370141
3.201839556876346E-4      639.8292941924979
4.7982673004648776E-4     639.8985780141679
6.393411493738095E-4      639.9598993020245
7.988560137323205E-4      640.0132580560676
9.58500122107595E-4       640.058654276297
0.0011184019611720658     640.0960879627131
0.0012786893978073315     640.1255591153156
0.0014692881782178572     640.1486734902212
0.0016592398034323465     640.1545145064871
0.0018487589083489172     640.143082164113
0.00203806159906999       640.1143764630993
0.0022273647228667317     640.0683974034458
0.0024168851255237504     640.0051449851526
0.002606838908709185      639.9246192082194
0.0027974407000143733     639.8268200726466
0.003000214284638094      639.6981174516272
0.0032022105766743216     639.5542770552419
0.003403687017647933      639.3952988834907
0.0036049030444305387     639.2211829363736
0.0038061191011872996     639.0319292138905
0.004007595631967136      638.8275377160415
0.00420959207329518       638.6080084428265
0.00441236586612622       638.3733413942456
0.004615139632985625      638.1108724044366
0.004817136048636202      637.8447160771999
0.005018612553936322      637.5748724125358
0.005219828585313435      637.301341410444
0.005421044586718146      637.0241230709247
0.0056225210022172924     636.7432173939778
0.005824517268584787      636.4586243796034
0.006027290827249049      636.1703440278014
0.006217890949519272      635.8713045224666
0.006407844130704021      635.590696277682
0.0065973647866391935     635.3285192934478
0.00678666880286996       635.0847735697639
0.006975972806121895      634.8594591066303
0.007165493423165078      634.652575904047
0.007355446539677438      634.464123962014
0.007546046571713631      634.2941032805313
0.00770633524869351       634.1667390844278
0.007866237248851195      634.056790057919
0.008025880956992212      633.9642562010049
0.008185395381580456      633.8891375136857
0.008344909844757132      633.8314339959612
0.008504553668569658      633.7911456478316
0.008664455861201733      633.7682724692968
0.008824744806995652      633.7628144603567
0.008985029143401957      633.7764310695744
0.009144928762683142      633.8120450679876
0.009304571537041926      633.8696564555959
0.009464085956369179      633.9492652323995
0.00962360082072762       634.0508713983984
0.009783244929102828      634.1744749535925
0.009943146768167231      634.320075897982
0.010103434204802428      634.4876742315668
0.010294032985212885      634.6778441121311
0.010483984610427306      634.8879600402313
0.01067350371534381       635.118022015867
0.010862806406064813      635.3680300390387
0.011052109529861487      635.637984109746
0.011241629932518437      635.9278842279891
0.011431583715703804      636.237730393768
0.011622185507008923      636.5675226070825
0.011824959091632737      636.8961604150305
0.012026955383669057      637.2171383159696
0.012228431824642762      637.5304563098999
0.01242964785142546       637.8361143968214
0.012630863908182311      638.134112576734
0.012832340438962243      638.4244508496378
0.01303433688029038       638.7071292155327
0.013237110673121513      638.9821476744188
0.013439884439981065      639.2364268829206
0.013641880855631786      639.4709039784282
0.013843357360932049      639.685578960942
0.014044573392309304      639.8804518304619
0.014245789393714157      640.0555225869879
0.014447265809213447      640.2107912305199
0.014649262075581083      640.3462577610582
0.01485203563424549       640.4619221786023
0.015042635756515686      640.5575361922486
0.015232588937700405      640.6360383868342
0.015422109593635547      640.6974287623596
0.015611413609866287      640.7417073188242
0.015800717613118194      640.7688740562282
0.01599023823016135       640.778928974572
0.01618019134667368       640.771872073855
0.016370791378709844      640.7477033540774
0.016531080055689654      640.70143924507
0.01669098205584727       640.6510589738554
0.016850625763988217      640.5965625404336
0.017010140188576394      640.5379499448047
0.017169654651752998      640.4752211869685
0.017329298475565455      640.4083762669253
0.017489200668197463      640.3374151846748
0.01764948961399131       640.2623379402172
0.01780977395039525       640.1570284553273
0.017969673569674088      640.0396272748361
0.018129316344030533      639.9101343987435
0.01828883076335545       639.7685498270494
0.01844834562771156       639.6148735597537
0.01860798973608443       639.4491055968568
0.018767891575146484      639.2712459383584
0.018928179011779317      639.0812945842586
0.019118777792188433      638.7938464639983
0.019308729417401523      638.4838768309795
0.019498248522316707      638.1513856852021
0.019687551213036395      637.7963730266662
0.019876854336831753      637.4188388553717
0.02006637473948738       637.0187831713187
0.020256328522671414      636.5962059745071
0.020446930313975188      636.1511072649371
0.02064970389860279       635.6257756276897
0.02085170019064286       635.0875682722226
0.02105317663162028       634.5364851985355
0.02125439265840668       633.9725264066286
0.021455608715167235      633.3956918965018
0.02165708524595088       632.8059816681553
0.021859081687282764      632.2033957215888
0.02206185548011769       631.5879340568025
0.022264629246980954      630.9803129200249
0.022466625662635346      630.3847299357095
0.022668102167939252      629.8011851038564
0.022869318199320136      629.2296784244655
0.023070534200728618      628.6702098975369
0.023272010616231548      628.1227795230707
0.023474006882602858      627.5873873010665
0.02367678044127098       627.0640332315248
0.02386738056353977       626.5609541495744
0.024057333744723106      626.0925645782042
0.02424685440065687       625.6588645174147
0.024436158416886237      625.2598539672055
0.02462546242013677       624.8955329275767
0.024814983037178547      624.5659013985284
0.025004936153689494      624.2709593800605
0.025195536185724256      624.0107068721729
0.0253558248627017        623.7855693565073
0.025515726862856965      623.590102174381
0.025675370570995573      623.424305325794
0.02583488499558142       623.2881788107464
0.02599439945875569       623.1817226292384
0.02615404328256581       623.1049367812698
0.026313945475195465      623.0578212668406
0.026474234420986946      623.0403760859508
0.026634518757392422      623.0470526199869
0.02679441837667279       623.0797439678253
0.026954061151030752      623.1384501294658
0.02711357557035719       623.2231711049087
0.027273090434714816      623.3339068941539
0.027432734543089202      623.4706574972013
0.027592636382152785      623.633422914051
0.02775292381878715       623.822203144703
0.02794352259919713       624.0562318109955
0.02813347422441108       624.3236802081113
0.028322993329327112      624.6245483360503
0.028512296020047647      624.9588361948125
0.02870159914384385       625.3265437843979
0.028891119546500334      625.7276711048065
0.02908107332968523       626.1622181560384
0.029271675120989875      626.6301849380935
0.02947444870561504       627.1462573574456
0.029676444997652693      627.673454984006
0.02987792143862772       628.2117778177744
0.030079137465411736      628.7612258587512
0.030280353522169904      629.3217991069362
0.030481830052951155      629.8934975623293
0.030683826494280624      630.4763212249308
0.030886600287113104      631.0702700947403
0.03108937405397396       631.6550730212163
0.03129137046962597       632.2340223787841
0.03149284697492751       632.8071181674436
0.03169406300630604       633.374360387195
0.03189527900771217       633.9357490380381
0.03209675542321274       634.4912841199732
0.03229875168958166       635.0409656329999
0.03250152524824737       635.5847935771185
0.03269212537051706       636.0269554918038
0.03288207855170127       636.4449967549435
0.033071599207635916      636.8389173665378
0.033260903223866156      637.2087173265865
0.033450207227117564      637.5543966350896
0.033639727844160215      637.8759552920473
0.03382968096067204       638.1733932974594
0.034020280992707694      638.446710651326
0.034180569669686675      638.6442485591675
0.03434047166984347       638.8289230753539
0.0345001153779836        639.0007341998855
0.03465962980257096       639.1596819327618
0.03481914426574675       639.3057662739832
0.034978788089558385      639.4389872235495
0.03513869028218957       639.5593447814607
0.035298979227982585      639.6668389477169
