% Model:              brazing.mph
% Version:            COMSOL 5.3.0.223
% Date:               Oct 24 2018, 04:05
% Dimension:          1
% Nodes:              225
% Expressions:        1
% Description:        Line graph
% x                       Height
0                         728.575837634034
2.3022181212578358E-4     728.4085102887154
4.5999325066962656E-4     728.2139864422644
6.894940081029028E-4      727.9922660946808
9.189044129547812E-4      727.7433492459649
0.001148405006736289      727.4672358961168
0.0013781761183620641     727.1639260451358
0.001608397441069865      726.8334196930227
0.001839314118928521      726.0690078537286
0.0020697760201574002     725.3079391289651
0.002299964597801726      724.550213518732
0.0025300619515304015     723.7958310230292
0.0027602503975112853     723.0447916418573
0.0029907120357255193     722.2970953752155
0.003221628319839081      721.5527422231042
0.0034518885683530987     720.5768880520391
0.0036816980188178403     719.5883531804608
0.003911236592567028      718.5871376083694
0.004140684848157368      717.5732413357653
0.004370223557282477      716.5466643626482
0.004600033278179856      715.5074066890179
0.004830293931548535      714.4554683148748
0.005060048526376791      713.2206783553726
0.005289355629682316      711.9963438904985
0.005518393850920054      710.7824649202528
0.005747342428834         709.5790414446352
0.00597638081262499       708.3860734636464
0.006205688240655705      707.2035609772855
0.006435443321622868      706.0315039855532
0.006665339619110656      704.7844069284823
0.006894787442849326      703.5569505477406
0.007123965728649401      702.3491348433275
0.007353054043912613      701.1609598152436
0.007582232167524012      699.992425463489
0.007811679667266285      698.843531788063
0.008041575479707366      697.7142787889662
0.008271887219609135      696.5852748845233
0.008501747728772392      695.4937663094331
0.008731337046705121      694.4397530636958
0.008960835851156599      693.4232351473114
0.009190425033567954      692.44421256028
0.009420285272008154      691.5026853026012
0.009650596606620833      690.5986533742755
0.009881512912836019      689.7293835433642
0.010111974573021956      688.9132683970137
0.010342163040896366      688.1503079352243
0.010572260416492441      687.4405021579959
0.010802449016030204      686.7838510653287
0.011032910939230619      686.1803546572223
0.011263827639190652      685.6300129336771
0.011494048967061755      685.107703833265
0.011723820083820682      684.668354314809
0.011953320682717213      684.3119643783087
0.012182731092678062      684.0385340237648
0.012412231855226382      683.8480632511771
0.012642003298903411      683.740552060545
0.012872225116192546      683.7160004518693
0.013102446994778118      683.5226270515095
0.013332218499393473      683.4364473345834
0.01356171932266464       683.4574613010908
0.013791129793276359      683.5856689510316
0.01402063045289555       683.821070284406
0.014250401630592404      684.1636653012138
0.014480623019759359      684.6134540014551
0.014711539835704642      684.872406501942
0.014942001874208778      685.2225228193687
0.015172190588640395      685.6638029537351
0.01540228807899374       686.1962469050413
0.015632476661762654      686.8198546732876
0.015862938437253588      687.5346262584733
0.01609385485945594       688.3405616605991
0.016324115336228646      689.0542998028798
0.016553925013622208      689.810553547595
0.016783463813500554      690.6093228947447
0.017012912294953733      691.450607844329
0.01724245123020976       692.3344083963484
0.01747226117803945       693.260724550802
0.017702522059672054      694.2295563076905
0.017932276794613372      695.2100989146261
0.018161584037218948      696.2176808448404
0.018390622397267263      697.2523020983331
0.018619571113827754      698.3139626751047
0.018848609636427344      699.4026625751552
0.019077917203754128      700.518401798484
0.019307672424828403      701.6611803450917
0.019537568573699274      702.7170648584225
0.01976701624968263       703.7872838319961
0.019996194388245302      704.8718372658128
0.020225282556443316      705.9707251598727
0.020454460532815345      707.0839475141756
0.02068390788479834       708.2115043287214
0.020913803548616574      709.3533956035103
0.02114411498977932       710.2871224425517
0.021373975201947604      711.2318936166744
0.02160356422393484       712.1877091258783
0.02183306273279162       713.1545689701634
0.02206265161925901       714.1324731495301
0.02229251156070728       715.1214216639779
0.02252282259658549       716.1214145135071
0.022753738766914562      716.7917165137925
0.022984200292012823      717.4604988544485
0.023214388625279938      718.1277615354751
0.023444485866429166      718.7935045568726
0.023674674331359946      719.4577279186409
0.023905136119473275      720.1204316207798
0.024136052683548088      720.7816156632895
0.024366274021741702      721.0327798960193
0.024596045148762867      721.2847009775212
0.024825545757885373      721.5373789077953
0.02505495617806012       721.7908136868417
0.02528445695083446       722.0450053146606
0.025514228404773787      722.2999537912513
0.025744450232385536      722.5556591166144
0.025974672267095825      722.4067990758285
0.026204443926923768      722.2395466410743
0.02643394490485871       722.0539018123521
0.02666335552995085       721.8498645896615
0.026892856344233315      721.627434973003
0.02712262767714175       721.3866129623759
0.02735284922243193       721.1273985577809
0.027583766528201624      720.4232263599654
0.027814229053652367      719.7127701327545
0.028044418253299775      718.9960298761481
0.02827451622829193       718.2730055901465
0.028504705296278778      717.5436972747497
0.028735167558720572      716.8081049299572
0.028966084470753738      716.0662285557695
0.029196345605491433      715.1378189495064
0.02942615593701711       714.1760104700188
0.02965569538872289       713.1808031173066
0.029885144521236064      712.1521968913701
0.030114684108324883      711.0901917922093
0.030344494710297387      709.9947878198237
0.030574756249911007      708.8659849742139
0.030804511377321087      707.648431663335
0.031033819010118435      706.4207543336942
0.031262857758987544      705.182952985291
0.03149180686390927       703.9350276181254
0.031720845775323685      702.676978232198
0.031950153732830305      701.408804827508
0.032179909346355486      700.1305074040561
0.0324098051544111        698.8747724932645
0.032639252491552244      697.626841185042
0.03286843029245836       696.3867134793884
0.0330975181233935        695.1543893763039
0.03332669576210278       693.929868875789
0.03355614277523119       692.7131519778426
0.033786038098215655      691.5042386824655
0.034016348759356954      690.3571044965573
0.03424620819605658       689.2475342436675
0.034475796445315066      688.1755279237962
0.03470529418235937       687.1410855369433
0.03493488229610333       686.144207083109
0.035164741462093585      685.1848925622929
0.03539505171796626       684.2631419744955
0.035625967353597694      683.4146340506609
0.03585642834714083       682.6273424160576
0.036086616150743635      681.9012670706846
0.03631671286286018       681.2364080145428
0.03654690079812825       680.632765247632
0.036777362054689705      680.0903387699518
0.03700827808407173       679.6091285815028
0.03723849938140827       679.1878448601145
0.03746827046781093       678.8562981553325
0.03769777103645843       678.6144884671571
0.03792718141620601       678.4624157955881
0.0381566821485052        678.400080140626
0.03838645356182577       678.4274815022698
0.03861667534858004       678.5446198805203
0.038846895274787324      678.5524562120289
0.039076664838430766      678.671638819639
0.03930616372759302       678.9021677033501
0.03953557226638858       679.2440428631623
0.039765070991905134      679.6972642990762
0.039994840228642616      680.2618320110909
0.040225059665450036      680.9377459992071
0.04045597761776665       681.4872595366962
0.04068644078597457       682.12789476574
0.04091663062609736       682.8596516863386
0.041146729240799984      683.6825302984918
0.04137691894925231       684.5965306021999
0.04160738185443156       685.6016525974624
0.04183829941298208       686.6978962842796
0.04206856149768976       687.7388712644326
0.04229837277362926       688.8189030069448
0.04252791316640542       689.9379915118154
0.04275736323887129       691.0961367790451
0.04298690376702529       692.2933388086338
0.04321671531340127       693.5295976005812
0.04344697780296935       694.8049131548876
0.043676731016186174      696.144880648443
0.04390603674591497       697.4932233579547
0.04413507359840861       698.8499412834225
0.04436402080919017       700.2150344248466
0.044593057824233256      701.5885027822274
0.04482236387867965       702.9703463555638
0.045052117578024006      704.3605651448569
0.045282012653644836      705.7631547849224
0.045511459262636354      707.146420121649
0.04574063633797325       708.5103611550365
0.04596972344420469       709.8549778850851
0.046198900357357554      711.180270311795
0.046428346642361965      712.4862384351655
0.04665824123294997       713.7728822551973
0.04688855484177433       714.9755664968915
0.04711841720894409       716.1510956813534
0.04734800837831597       717.2994698085826
0.04757750903201372       718.4206888785793
0.047807100065861544      719.514752891344
0.04803696216230292       720.5816618468756
0.04826727536583021       721.6214157451749
0.048498193048686675      722.4495158058312
0.048728656077441146      723.2465324191643
0.04895884590902903       724.0124655851738
0.04918894464672031       724.7473153038596
0.04941913460997818       725.4510815752225
0.04964959790176041       726.1237643992614
0.04988051597838159       726.7653637759772
0.05011073543954296       727.0675881276856
0.0503405047004922        727.3552840696842
0.05057000345013497       727.6284516019734
0.05079941201302823       727.8870907245529
0.05102891092631677       728.1312014374231
0.05125868051417213       728.3607837405832
0.051488900464733596      728.575837634034
