% Model:              brazing.mph
% Version:            COMSOL 5.3.0.223
% Date:               Oct 24 2018, 03:08
% Dimension:          1
% Nodes:              145
% Expressions:        1
% Description:        Line graph
% x                       Height
0                         670.9425992304155
1.8037553861809572E-4     671.1984729634075
3.5951128344368776E-4     671.4012648562276
5.377561773732229E-4      671.5509749088758
7.154644111300318E-4      671.6476031213522
8.929933875627798E-4      671.6911494936567
0.0010707015910786408     671.6816140257893
0.0012489464247083767     671.6189967177497
0.0014280820795340731     671.5032975695384
0.0016084574989771061     671.3345165811553
0.0017793134314883058     671.2661751920157
0.0019491114898538484     671.1734779494602
0.002118149876008701      671.0564248534896
0.0022867308232763497     670.9150159041035
0.002455159027530182      670.7492511013019
0.0026237400128558564     670.5591304450845
0.0027927784749207734     670.3446539354519
0.0029625766466419693     670.1058215724036
0.0031334327293582195     669.8426333559399
0.0033042867504275058     669.6647326815518
0.0034740828875811486     669.4821277468368
0.0036431193341009516     669.2948185517953
0.0038116983146850476     669.1028050964272
0.003980124516686077      668.9060873807325
0.004148703455848711      668.7046654047112
0.004317739819749776      668.4985391683633
0.004487535833529769      668.2877086716886
0.004658389691119368      668.0721739146875
0.0048387629974717405     667.9486405602389
0.005017896580971026      667.8306915026691
0.005196139373513023      667.7183267419786
0.0053738455543625        667.6115462781668
0.005551372514551955      667.5103501112341
0.005729078726427549      667.4147382411801
0.005907321580834967      667.3247106680053
0.006086455256670912      667.2402673917093
0.006266828685292636      667.1614084122924
0.0064472042239161545     667.3082226454869
0.0066263399687470585     667.4636340194386
0.00680458486268183       667.6276425341478
0.0069822930964438265     667.8002481896144
0.007159822072881748      667.9814509858381
0.007337530276402798      668.1712509228195
0.007515775110037768      668.3696480005581
0.007694910764868775      668.5766422190537
0.007875286184317232      668.792233578307
0.008046142116827224      669.0652616624625
0.008215940175191578      669.3302534009507
0.008384978561345261      669.5872087937723
0.008553559508611747      669.8361278409269
0.008721987712864422      670.0770105424144
0.008890568698188937      670.3098568982352
0.00905960716025268       670.5346669083888
0.009229405331972688      670.7514405728755
0.009400261414687729      670.9601778916954
0.009571115435747398      671.2806489410079
0.009740911572891598      671.5716793330176
0.009909948019402086      671.8332690677249
0.010078526999976944      672.0654181451297
0.010246953201968763      672.2681265652318
0.010415532141122159      672.4413943280313
0.010584568505013912      672.5852214335282
0.010754364518784467      672.6996078817222
0.010925218376364454      672.7845536726139
0.011105591682722255      672.9459353546539
0.01128472526622686       673.0615589949626
0.011462968058774099      673.1314245935405
0.011640674239628768      673.1555321503873
0.011818201199823401      673.133881665503
0.01199590741170419       673.0664731388879
0.012174150266116847      672.9533065705414
0.012353283941958112      672.794381960464
0.012533657370585264      672.5896993086556
0.01271403176453574       672.548791502185
0.012893166387683227      672.4544219579174
0.013071410176518557      672.3065906758526
0.013249117315197753      672.105297655991
0.013426645199902413      671.8505428983322
0.013604352308338922      671.5423264028765
0.01378259603687098       671.1806481696236
0.013961730570013379      670.7655081985736
0.014142104844781908      670.2969064897267
0.014312959944399205      669.8964168212469
0.014482757184992078      669.472138050904
0.014651794764271453      669.0240701786984
0.014820374911240972      668.5522132046298
0.014988802317395246      668.0565671286981
0.01515738250242126       667.5371319509036
0.015326420157607648      666.9939076712459
0.015496217511551624      666.4268942897255
0.015667072761367945      665.836091806342
0.01583792791479403       665.320362175923
0.016007725163749622      664.812597479853
0.01617676270725794       664.3127977181323
0.01634534277588875       663.8209628907607
0.016513770062946447      663.3370929977382
0.01668235009015449       662.8611880390648
0.016851387551041475      662.3932480147404
0.017021184676619543      661.9332729247653
0.017192039666560827      661.4812627691393
0.017372413817338207      661.1056922903772
0.017551548228302124      660.7564265783219
0.017729791836073705      660.4334656329738
0.017907498824762332      660.1368094543329
0.018085026590318725      659.8664580423991
0.018262733610032132      659.6224113971722
0.018440977279666457      659.4046695186526
0.018620111782963036      659.2132324068397
0.018800486056004474      659.0481000617341
0.018980860449944497      659.1298662480917
0.019159995073081745      659.2433237748188
0.019338238861906984      659.3884726419155
0.01951594600057618       659.565312849382
0.019693473885270874      659.7738443972181
0.019871180993697383      660.014067285424
0.020049424722219357      660.2859815139992
0.02022855925535152       660.589587082944
0.0204089335301096        660.9248839922586
0.02057978862980686       661.3208468048762
0.020749585870478253      661.720061168022
0.020918623449835097      662.1225270816965
0.021087203596881453      662.5282445458995
0.021255631003112355      662.937213560631
0.021424211188215206      663.3494341258909
0.021593248843479067      663.7649062416791
0.021763046197501558      664.183629907996
0.02193390144739785       664.6056051248413
0.022104756600747556      665.1682749050833
0.02227455384962815       665.7057498242294
0.02244359139306247       666.21802988228
0.022612171461619885      666.7051150792347
0.022780598748604386      667.1670054150936
0.022949178775739036      667.6037008898568
0.02311821623655202       668.0152015035243
0.023288013362055097      668.4015072560958
0.023458868351919994      668.7626181475717
0.02363924250270423       669.189215350057
0.023818376913674867      669.5697182819998
0.023996620521453065      669.9041269434006
0.02417432751014825       670.1924413342589
0.02435185527571118       670.4346614545748
0.024529562295431146      670.6307873043486
0.02470780596507209       670.7808188835799
0.024886940468375387      670.8847561922688
0.025067314741423676      670.9425992304155
