% Model:              brazing.mph
% Version:            COMSOL 5.3.0.223
% Date:               Oct 24 2018, 03:00
% Dimension:          1
% Nodes:              193
% Expressions:        1
% Description:        Line graph
% x                       Height
0                         627.4381845835738
1.6028433640637486E-4     627.5216948786502
3.201839556876346E-4      627.5976528159749
4.7982673004648776E-4     627.666058395548
6.393411493738095E-4      627.7269116173694
7.988560137323205E-4      627.7802124814392
9.58500122107595E-4       627.8259609877572
0.0011184019611720658     627.8641571363237
0.0012786893978073315     627.8948009271384
0.0014692881782178572     627.9192268118727
0.0016592398034323465     627.9266491252464
0.0018487589083489172     627.9170678672598
0.00203806159906999       627.8904830379124
0.0022273647228667317     627.8468946372045
0.0024168851255237504     627.7863026651361
0.002606838908709185      627.7087071217071
0.0027974407000143733     627.6141080069176
0.003000214284638094      627.48932629226
0.0032022105766743216     627.349114215283
0.003403687017647933      627.1934717759863
0.0036049030444305387     627.0223989743702
0.0038061191011872996     626.8358958104346
0.004007595631967136      626.6339622841795
0.00420959207329518       626.4165983956049
0.00441236586612622       626.1838041447108
0.004615139632985625      625.9211287113088
0.004817136048636202      625.65488257335
0.005018612553936322      625.3850657308345
0.005219828585313435      625.1116781837621
0.005421044586718146      624.834719932133
0.0056225210022172924     624.554190975947
0.005824517268584787      624.2700913152042
0.006027290827249049      623.9824209499047
0.006217890949519272      623.6831263146149
0.006407844130704021      623.4022009211702
0.0065973647866391935     623.1396447695702
0.00678666880286996       622.8954578598152
0.006975972806121895      622.6696401919052
0.007165493423165078      622.4621917658399
0.007355446539677438      622.2731125816196
0.007546046571713631      622.1024026392442
0.00770633524869351       621.9745901398504
0.007866237248851195      621.8643715529223
0.008025880956992212      621.7717468784599
0.008185395381580456      621.6967161164631
0.008344909844757132      621.639279266932
0.008504553668569658      621.5994363298666
0.008664455861201733      621.5771873052668
0.008824744806995652      621.5725321931327
0.008985029143401957      621.5871603760346
0.009144928762683142      621.6237100181421
0.009304571537041926      621.6821811194551
0.009464085956369179      621.7625736799737
0.00962360082072762       621.8648876996978
0.009783244929102828      621.9891231786273
0.009943146768167231      622.1352801167626
0.010103434204802428      622.3033585141033
0.010294032985212885      622.4956617383382
0.010483984610427306      622.7078398779902
0.01067350371534381       622.9398929330592
0.010862806406064813      623.1918209035455
0.011052109529861487      623.4636237894489
0.011241629932518437      623.7553015907692
0.011431583715703804      624.0668543075068
0.011622185507008923      624.3982819396614
0.011824959091632737      624.7260465447426
0.012026955383669057      625.0463082057172
0.012228431824642762      625.359066922585
0.01242964785142546       625.6643226953462
0.012630863908182311      625.9620755240006
0.012832340438962243      626.2523254085485
0.01303433688029038       626.5350723489895
0.013237110673121513      626.8103163453238
0.013439884439981065      627.0608253533794
0.013641880855631786      627.2916457975385
0.013843357360932049      627.5027776778013
0.014044573392309304      627.6942209941676
0.014245789393714157      627.8659757466374
0.014447265809213447      628.0180419352108
0.014649262075581083      628.150419559888
0.01485203563424549       628.2631086206685
0.015042635756515686      628.3558960462906
0.015232588937700405      628.4318253028623
0.015422109593635547      628.4908963903831
0.015611413609866287      628.5331093088535
0.015800717613118194      628.5584640582731
0.01599023823016135       628.5669606386422
0.01618019134667368       628.5585990499605
0.016370791378709844      628.5333792922283
0.016531080055689654      628.4858299200706
0.01669098205584727       628.434570223206
0.016850625763988217      628.3796002016348
0.017010140188576394      628.3209198553567
0.017169654651752998      628.2585291843718
0.017329298475565455      628.19242818868
0.017489200668197463      628.1226168682814
0.01764948961399131       628.049095223176
0.01780977395039525       627.9447165089588
0.017969673569674088      627.8284224139308
0.018129316344030533      627.7002129380919
0.01828883076335545       627.5600880814422
0.01844834562771156       627.4080478439816
0.01860798973608443       627.2440922257102
0.018767891575146484      627.068221226628
0.018928179011779317      626.8804348467348
0.019118777792188433      626.5967738624563
0.019308729417401523      626.2907619600666
0.019498248522316707      625.9623991395654
0.019687551213036395      625.6116854009531
0.019876854336831753      625.2386207442295
0.02006637473948738       624.8432051693945
0.020256328522671414      624.4254386764483
0.020446930313975188      623.9853212653908
0.02064970389860279       623.4595141669826
0.02085170019064286       622.9208888302941
0.02105317663162028       622.3694452553254
0.02125439265840668       621.8051834420766
0.021455608715167235      621.2281033905475
0.02165708524595088       620.6382051007382
0.021859081687282764      620.0354885726488
0.02206185548011769       619.4199538062791
0.022264629246980954      618.8082517778649
0.022466625662635346      618.2088570499652
0.022668102167939252      617.6217696225798
0.022869318199320136      617.0469894957088
0.023070534200728618      616.4845166693522
0.023272010616231548      615.9343511435098
0.023474006882602858      615.3964929181819
0.02367678044127098       614.8709419933683
0.02386738056353977       614.3645138605233
0.024057333744723106      613.8928675568816
0.02424685440065687       613.4560030824431
0.024436158416886237      613.0539204372079
0.02462546242013677       612.6866196211761
0.024814983037178547      612.3541006343476
0.025004936153689494      612.0563634767225
0.025195536185724256      611.7934081483006
0.0253558248627017        611.5669812459051
0.025515726862856965      611.3702646422735
0.025675370570995573      611.2032583374053
0.02583488499558142       611.0659623313006
0.02599439945875569       610.9583766239596
0.02615404328256581       610.8805012153821
0.026313945475195465      610.8323361055682
0.026474234420986946      610.8138812945178
0.026634518757392422      610.8196153031021
0.02679441837667279       610.8515297094084
0.026954061151030752      610.9096245134366
0.02711357557035719       610.9938997151868
0.027273090434714816      611.1043553146591
0.027432734543089202      611.2409913118533
0.027592636382152785      611.4038077067696
0.02775292381878715       611.5928044994079
0.02794352259919713       611.8279309520931
0.02813347422441108       612.0966231230989
0.028322993329327112      612.3988810124247
0.028512296020047647      612.734704620071
0.02870159914384385       613.1040939460377
0.028891119546500334      613.5070489903246
0.02908107332968523       613.9435697529319
0.029271675120989875      614.4136562338595
0.02947444870561504       614.93021356458
0.029676444997652693      615.4583806931463
0.02987792143862772       615.9981576195586
0.030079137465411736      616.5495443438169
0.030280353522169904      617.1125408659212
0.030481830052951155      617.6871471858714
0.030683826494280624      618.2733633036675
0.030886600287113104      618.8711892193096
0.03108937405397396       619.4581140503851
0.03129137046962597       620.0388036551658
0.03149284697492751       620.6132580336515
0.03169406300630604       621.1814771858423
0.03189527900771217       621.743461111738
0.03209675542321274       622.2992098113391
0.03229875168958166       622.8487232846451
0.03250152524824737       623.3920015316562
0.03269212537051706       623.8325763743867
0.03288207855170127       624.2489239377569
0.033071599207635916      624.6410442217668
0.033260903223866156      625.0089372264164
0.033450207227117564      625.3526029517055
0.033639727844160215      625.6720413976344
0.03382968096067204       625.9672525642029
0.034020280992707694      626.2382364514111
0.034180569669686675      626.4323661671173
0.03434047166984347       626.6138855401989
0.0345001153779836        626.7827945706559
0.03465962980257096       626.9390932584886
0.03481914426574675       627.0827816036966
0.034978788089558385      627.2138596062803
0.03513869028218957       627.3323272662393
0.035298979227982585      627.4381845835738
