% Model:              brazing.mph
% Version:            COMSOL 5.3.0.223
% Date:               Oct 24 2018, 05:07
% Dimension:          1
% Nodes:              193
% Expressions:        1
% Description:        Line graph
% x                       Height
0                         660.0283884217835
1.6028433640637486E-4     660.1067197184982
3.201839556876346E-4      660.177584537688
4.7982673004648776E-4     660.2409828793527
6.393411493738095E-4      660.2969147434925
7.988560137323205E-4      660.3453801301073
9.58500122107595E-4       660.3863790391972
0.0011184019611720658     660.419911470762
0.0012786893978073315     660.445977424802
0.0014692881782178572     660.4654324457341
0.0016592398034323465     660.4682717259316
0.0018487589083489172     660.4544952653944
0.00203806159906999       660.4241030641225
0.0022273647228667317     660.377095122116
0.0024168851255237504     660.3134714393746
0.002606838908709185      660.2332320158986
0.0027974407000143733     660.1363768516879
0.003000214284638094      660.009700649938
0.0032022105766743216     659.8683902194109
0.003403687017647933      659.7124455601064
0.0036049030444305387     659.5418666720248
0.0038061191011872996     659.356653555166
0.004007595631967136      659.1568062095297
0.00420959207329518       658.9423246351164
0.00441236586612622       658.7132088319258
0.004615139632985625      658.4571712657144
0.004817136048636202      658.1974630380507
0.005018612553936322      657.9340841489345
0.005219828585313435      657.6670345983662
0.005421044586718146      657.3963143863455
0.0056225210022172924     657.1219235128724
0.005824517268584787      656.8438619779471
0.006027290827249049      656.5621297815694
0.006217890949519272      656.2696214058271
0.006407844130704021      655.9950443909037
0.0065973647866391935     655.7383987367994
0.00678666880286996       655.499684443514
0.006975972806121895      655.2789015110476
0.007165493423165078      655.0760499394003
0.007355446539677438      654.891129728572
0.007546046571713631      654.7241408785626
0.00770633524869351       654.5989041522638
0.007866237248851195      654.4905796867259
0.008025880956992212      654.3991674819491
0.008185395381580456      654.3246675379332
0.008344909844757132      654.2670798546784
0.008504553668569658      654.2264044321845
0.008664455861201733      654.2026412704516
0.008824744806995652      654.1957903694798
0.008985029143401957      654.2074245514316
0.009144928762683142      654.240507403306
0.009304571537041926      654.2950389251029
0.009464085956369179      654.3710191168225
0.00962360082072762       654.4684479784647
0.009783244929102828      654.5873255100295
0.009943146768167231      654.727651711517
0.010103434204802428      654.889426582927
0.010294032985212885      655.0724914897728
0.010483984610427306      655.2750798007964
0.01067350371534381       655.4971915159981
0.010862806406064813      655.7388266353776
0.011052109529861487      655.9999851589349
0.011241629932518437      656.2806670866701
0.011431583715703804      656.5808724185832
0.011622185507008923      656.9006011546742
0.011824959091632737      657.2188415681198
0.012026955383669057      657.5296127750051
0.012228431824642762      657.8329147753299
0.01242964785142546       658.1287475690942
0.012630863908182311      658.4171111562981
0.012832340438962243      658.6980055369415
0.01303433688029038       658.9714307110245
0.013237110673121513      659.2373866785471
0.013439884439981065      659.4836005254858
0.013641880855631786      659.7106615860641
0.013843357360932049      659.918569860282
0.014044573392309304      660.1073253481393
0.014245789393714157      660.2769280496361
0.014447265809213447      660.4273779647725
0.014649262075581083      660.5586750935483
0.01485203563424549       660.6708194359638
0.015042635756515686      660.7640688624138
0.015232588937700405      660.8409713959437
0.015422109593635547      660.9015270365531
0.015611413609866287      660.9457357842425
0.015800717613118194      660.9735976390117
0.01599023823016135       660.9851126008605
0.01618019134667368       660.9802806697892
0.016370791378709844      660.9591018457977
0.016531080055689654      660.9160453175747
0.01669098205584727       660.8694237402901
0.016850625763988217      660.8192371139444
0.017010140188576394      660.7654854385369
0.017169654651752998      660.708168714068
0.017329298475565455      660.6472869405377
0.017489200668197463      660.5828401179459
0.01764948961399131       660.5148282462926
0.01780977395039525       660.4168419548563
0.017969673569674088      660.3074172606201
0.018129316344030533      660.1865541635838
0.01828883076335545       660.0542526637475
0.01844834562771156       659.9105127611112
0.01860798973608443       659.755334455675
0.018767891575146484      659.5887177474386
0.018928179011779317      659.4106626364024
0.019118777792188433      659.1374418557034
0.019308729417401523      658.8424395421408
0.019498248522316707      658.5256556957147
0.019687551213036395      658.187090316425
0.019876854336831753      657.8267434042718
0.02006637473948738       657.4446149592552
0.020256328522671414      657.0407049813749
0.020446930313975188      656.6150134706312
0.02064970389860279       656.1126806050993
0.02085170019064286       655.5978329111231
0.02105317663162028       655.0704703887025
0.02125439265840668       654.5305930378377
0.021455608715167235      653.9782008585286
0.02165708524595088       653.4132938507751
0.021859081687282764      652.8358720145774
0.02206185548011769       652.2459353499353
0.022264629246980954      651.6645311708517
0.022466625662635346      651.0946062065717
0.022668102167939252      650.5361604570952
0.022869318199320136      649.9891939224223
0.023070534200728618      649.4537066025528
0.023272010616231548      648.929698497487
0.023474006882602858      648.4171696072247
0.02367678044127098       647.9161199317658
0.02386738056353977       647.4339460150792
0.024057333744723106      646.9851991001427
0.02424685440065687       646.5698791869565
0.024436158416886237      646.1879862755206
0.02462546242013677       645.8395203658349
0.024814983037178547      645.5244814578996
0.025004936153689494      645.2428695517143
0.025195536185724256      644.9946846472793
0.0253558248627017        644.7794304988358
0.025515726862856965      644.5927572688156
0.025675370570995573      644.4346649572183
0.02583488499558142       644.3051535640441
0.02599439945875569       644.2042230892929
0.02615404328256581       644.1318735329647
0.026313945475195465      644.0881048950597
0.026474234420986946      644.0729171755777
0.026634518757392422      644.0807813517987
0.02679441837667279       644.1136436500148
0.026954061151030752      644.1715040702256
0.02711357557035719       644.2543626124317
0.027273090434714816      644.3622192766328
0.027432734543089202      644.495074062829
0.027592636382152785      644.6529269710203
0.02775292381878715       644.8357780012066
0.02794352259919713       645.061880536748
0.02813347422441108       645.32006881945
0.028322993329327112      645.6103428493119
0.028512296020047647      645.9327026263343
0.02870159914384385       646.2871481505168
0.028891119546500334      646.6736794218594
0.02908107332968523       647.0922964403625
0.029271675120989875      647.5429992060257
0.02947444870561504       648.0406402610319
0.029676444997652693      648.548657345941
0.02987792143862772       649.067050460753
0.030079137465411736      649.5958196054677
0.030280353522169904      650.1349647800853
0.030481830052951155      650.6844859846057
0.030683826494280624      651.2443832190289
0.030886600287113104      651.814656483355
0.03108937405397396       652.3766141544303
0.03129137046962597       652.9327783138887
0.03149284697492751       653.4831489617296
0.03169406300630604       654.0277260979537
0.03189527900771217       654.5665097225608
0.03209675542321274       655.0994998355507
0.03229875168958166       655.6266964369235
0.03250152524824737       656.1480995266793
0.03269212537051706       656.5716118829793
0.03288207855170127       656.9716637121165
0.033071599207635916      657.348255014091
0.033260903223866156      657.7013857889027
0.033450207227117564      658.0310560365516
0.033639727844160215      658.3372657570379
0.03382968096067204       658.6200149503613
0.034020280992707694      658.8793036165221
0.034180569669686675      659.0660425627015
0.03434047166984347       659.2404662673031
0.0345001153779836        659.4025747303273
0.03465962980257096       659.5523679517738
0.03481914426574675       659.6898459316426
0.034978788089558385      659.815008669934
0.03513869028218957       659.9278561666475
0.035298979227982585      660.0283884217835
