% Model:              brazing.mph
% Version:            COMSOL 5.3.0.223
% Date:               Oct 24 2018, 02:23
% Dimension:          1
% Nodes:              225
% Expressions:        1
% Description:        Line graph
% x                       Height
0                         682.4254288559425
2.3022181212578358E-4     682.2855433543879
4.5999325066962656E-4     682.1158737480881
6.894940081029028E-4      681.9164200370434
9.189044129547812E-4      681.6871822212536
0.001148405006736289      681.428160300719
0.0013781761183620641     681.139354275439
0.001608397441069865      680.8207641454143
0.001839314118928521      680.1046632044556
0.0020697760201574002     679.3903184762265
0.002299964597801726      678.6777299607265
0.0025300619515304015     677.966897657956
0.0027602503975112853     677.2578215679152
0.0029907120357255193     676.5505016906035
0.003221628319839081      675.8449380260213
0.0034518885683530987     674.9228859199366
0.0036816980188178403     673.9916155610636
0.003911236592567028      673.0511269494021
0.004140684848157368      672.1014200849527
0.004370223557282477      671.142494967715
0.004600033278179856      670.1743515976888
0.004830293931548535      669.1969899748744
0.005060048526376791      668.0290986190518
0.005289355629682316      666.8737172157603
0.005518393850920054      665.7308457649993
0.005747342428834         664.6004842667694
0.00597638081262499       663.4826327210707
0.006205688240655705      662.3772911279024
0.006435443321622868      661.2844594872652
0.006665339619110656      660.1080587171642
0.006894787442849326      658.9528933022416
0.007123965728649401      657.8189632424971
0.007353054043912613      656.7062685379308
0.007582232167524012      655.6148091885428
0.007811679667266285      654.5445851943326
0.008041575479707366      653.495596555301
0.008271887219609135      652.4379693740244
0.008501747728772392      651.4175503551012
0.008731337046705121      650.4343394985311
0.008960835851156599      649.4883368043143
0.009190425033567954      648.5795422724508
0.009420285272008154      647.7079559029403
0.009650596606620833      646.8735776957832
0.009881512912836019      646.0666570874729
0.010111974573021956      645.3112056750158
0.010342163040896366      644.6072234584119
0.010572260416492441      643.9547104376612
0.010802449016030204      643.353666612764
0.011032910939230619      642.8040919837196
0.011263827639190652      642.3059865505287
0.011494048967061755      641.8321026577025
0.011723820083820682      641.4362130552707
0.011953320682717213      641.1183177432333
0.012182731092678062      640.8784167215905
0.012412231855226382      640.7165099903422
0.012642003298903411      640.6325975494881
0.012872225116192546      640.6266793990286
0.013102446994778118      640.4745183756027
0.013332218499393473      640.4212955616591
0.01356171932266464       640.4670109571981
0.013791129793276359      640.6116645622196
0.01402063045289555       640.855256376724
0.014250401630592404      641.1977864007106
0.014480623019759359      641.6392546341798
0.014711539835704642      641.912833243248
0.014942001874208778      642.2709534813388
0.015172190588640395      642.7136153484524
0.01540228807899374       643.2408188445887
0.015632476661762654      643.852563969748
0.015862938437253588      644.5488507239297
0.01609385485945594       645.3296791071343
0.016324115336228646      646.0266938345113
0.016553925013622208      646.7648609739376
0.016783463813500554      647.544180525413
0.017012912294953733      648.3646524889375
0.01724245123020976       649.2262768645115
0.01747226117803945       650.1290536521342
0.017702522059672054      651.0729828518063
0.017932276794613372      652.0182610690493
0.018161584037218948      652.9906908095205
0.018390622397267263      653.9902720732199
0.018619571113827754      655.0170048601474
0.018848609636427344      656.0708891703032
0.019077917203754128      657.1519250036868
0.019307672424828403      658.2601123602986
0.019537568573699274      659.2709731418511
0.01976701624968263       660.2978312504142
0.019996194388245302      661.3406866859876
0.020225282556443316      662.3995394485719
0.020454460532815345      663.474389538167
0.02068390788479834       664.5652369547723
0.020913803548616574      665.6720816983885
0.02114411498977932       666.5631764189371
0.021373975201947604      667.4671819486202
0.02160356422393484       668.384098287438
0.02183306273279162       669.3139254353905
0.02206265161925901       670.2566633924779
0.02229251156070728       671.2123121586995
0.02252282259658549       672.1808717340562
0.022753738766914562      672.8162743609123
0.022984200292012823      673.452563967792
0.023214388625279938      674.0897405546951
0.023444485866429166      674.7278041216217
0.023674674331359946      675.366754668572
0.023905136119473275      676.0065921955454
0.024136052683548088      676.6473167025425
0.024366274021741702      676.8805544137618
0.024596045148762867      677.1140651002548
0.024825545757885373      677.3478487620214
0.02505495617806012       677.5819053990616
0.02528445695083446       677.816235011376
0.025514228404773787      678.0508375989634
0.025744450232385536      678.2857131618249
0.025974672267095825      678.155862442756
0.026204443926923768      678.0030780773593
0.02643394490485871       677.8273600656348
0.02666335552995085       677.6287084075825
0.026892856344233315      677.4071231032028
0.02712262767714175       677.1626041524949
0.02735284922243193       676.8951515554594
0.027583766528201624      676.224271377689
0.027814229053652367      675.5436018033306
0.028044418253299775      674.8531428323847
0.02827451622829193       674.1528944648512
0.028504705296278778      673.4428567007303
0.028735167558720572      672.7230295400213
0.028966084470753738      671.9934129827249
0.029196345605491433      671.0985276116796
0.02942615593701711       670.1719938963907
0.02965569538872289       669.2138118368586
0.029885144521236064      668.223981433083
0.030114684108324883      667.2025026850645
0.030344494710297387      666.1493755928022
0.030574756249911007      665.0646001562968
0.030804511377321087      663.8847307295304
0.031033819010118435      662.696399357403
0.031262857758987544      661.4996060399153
0.03149180686390927       660.2943507770669
0.031720845775323685      659.0806335688582
0.031950153732830305      657.8584544152884
0.032179909346355486      656.6278133163584
0.0324098051544111        655.4092005855923
0.032639252491552244      654.199401180713
0.03286843029245836       652.9984151017204
0.0330975181233935        651.8062423486144
0.03332669576210278       650.6228829213953
0.03355614277523119       649.4483368200624
0.033786038098215655      648.2826040446165
0.034016348759356954      647.1683416043768
0.03424620819605658       646.0906008868292
0.034475796445315066      645.0493818919733
0.03470529418235937       644.0446846198096
0.03493488229610333       643.0765090703381
0.035164741462093585      642.1448552435583
0.03539505171796626       641.2497231394707
0.035625967353597694      640.4196856659406
0.03585642834714083       639.6483437912997
0.036086616150743635      638.935697515548
0.03631671286286018       638.2817468386854
0.03654690079812825       637.6864917607122
0.036777362054689705      637.149932281628
0.03700827808407173       636.6720684014332
0.03723849938140827       636.2494013707841
0.03746827046781093       635.9114432194274
0.03769777103645843       635.658193947363
0.03792718141620601       635.4896535545912
0.0381566821485052        635.4058220411121
0.03838645356182577       635.4066994069252
0.03861667534858004       635.4922856520309
0.038846895274787324      635.4840943280674
0.039076664838430766      635.5799169212339
0.03930616372759302       635.7797534315304
0.03953557226638858       636.0836038589567
0.039765070991905134      636.4914682035135
0.039994840228642616      637.0033464651998
0.040225059665450036      637.6192386440164
0.04045597761776665       638.1247017311568
0.04068644078597457       638.7157284779391
0.04091663062609736       639.3923188843634
0.041146729240799984      640.1544729504296
0.04137691894925231       641.0021906761382
0.04160738185443156       641.9354720614882
0.04183829941298208       642.9543171064805
0.04206856149768976       643.9227821739344
0.04229837277362926       644.9296362950305
0.04252791316640542       645.9748794697689
0.04275736323887129       647.0585116981496
0.04298690376702529       648.1805329801728
0.04321671531340127       649.3409433158379
0.04344697780296935       650.5397427051455
0.043676731016186174      651.7949233320851
0.04390603674591497       653.0597356666594
0.04413507359840861       654.3341797088683
0.04436402080919017       655.6182554587119
0.044593057824233256      656.9119629161903
0.04482236387867965       658.2153020813032
0.045052117578024006      659.5282729540509
0.045282012653644836      660.8446601546559
0.045511459262636354      662.1450688037861
0.04574063633797325       663.4294989014412
0.04596972344420469       664.6979504476217
0.046198900357357554      665.9504234423277
0.046428346642361965      667.1869178855586
0.04665824123294997       668.4074337773148
0.04688855484177433       669.537899566486
0.04711841720894409       670.6452217349143
0.04734800837831597       671.7294002825997
0.04757750903201372       672.7904352095424
0.047807100065861544      673.8283265157426
0.04803696216230292       674.8430742011996
0.04826727536583021       675.8346782659139
0.048498193048686675      676.6120750867201
0.048728656077441146      677.3629756624296
0.04895884590902903       678.0873799930416
0.04918894464672031       678.785288078557
0.04941913460997818       679.4566999189755
0.04964959790176041       680.1016155142968
0.04988051597838159       680.7200348645213
0.05011073543954296       681.0019312561776
0.0503405047004922        681.2710714216352
0.05057000345013497       681.5274553608941
0.05079941201302823       681.7710830739543
0.05102891092631677       682.0019545608159
0.05125868051417213       682.2200698214784
0.051488900464733596      682.4254288559425
