% Model:              brazing.mph
% Version:            COMSOL 5.3.0.223
% Date:               Oct 24 2018, 03:52
% Dimension:          1
% Nodes:              193
% Expressions:        1
% Description:        Line graph
% x                       Height
0                         637.1237134141319
1.6028433640637486E-4     637.2068804292682
3.201839556876346E-4      637.282379170694
4.7982673004648776E-4     637.3502096384088
6.393411493738095E-4      637.4103718324131
7.988560137323205E-4      637.4628657527069
9.58500122107595E-4       637.5076913992898
0.0011184019611720658     637.5448487721621
0.0012786893978073315     637.5743378713239
0.0014692881782178572     637.5976844586756
0.0016592398034323465     637.6042463184865
0.0018487589083489172     637.5940234507561
0.00203806159906999       637.5670158554849
0.0022273647228667317     637.5232235326727
0.0024168851255237504     637.4626464823193
0.002606838908709185      637.385284704425
0.0027974407000143733     637.2911381989896
0.003000214284638094      637.1663834435283
0.0032022105766743216     637.0266368670318
0.003403687017647933      636.8718984695003
0.0036049030444305387     636.7021682509337
0.0038061191011872996     636.5174462113321
0.004007595631967136      636.3177323506957
0.00420959207329518       636.103026669024
0.00441236586612622       635.8733291663174
0.004615139632985625      635.6157117532412
0.004817136048636202      635.3545160075997
0.005018612553936322      635.0897419293926
0.005219828585313435      634.8213895186203
0.005421044586718146      634.5494587752826
0.0056225210022172924     634.2739496993795
0.005824517268584787      633.994862290911
0.006027290827249049      633.7121965498771
0.006217890949519272      633.418463134442
0.006407844130704021      633.1427262624084
0.0065973647866391935     632.8849859337761
0.00678666880286996       632.6452421485452
0.006975972806121895      632.4234949067157
0.007165493423165078      632.2197442082877
0.007355446539677438      632.033990053261
0.007546046571713631      631.8662324416358
0.00770633524869351       631.7403551283138
0.007866237248851195      631.6316333456206
0.008025880956992212      631.540067093556
0.008185395381580456      631.4656563721202
0.008344909844757132      631.4084011813131
0.008504553668569658      631.3683015211345
0.008664455861201733      631.3453573915849
0.008824744806995652      631.3395687926638
0.008985029143401957      631.3523694787348
0.009144928762683142      631.3867025525716
0.009304571537041926      631.442568014174
0.009464085956369179      631.5199658635421
0.00962360082072762       631.618896100676
0.009783244929102828      631.7393587255756
0.009943146768167231      631.8813537382408
0.010103434204802428      632.0448811386719
0.010294032985212885      632.2310475560051
0.010483984610427306      632.4367287581648
0.01067350371534381       632.661924745151
0.010862806406064813      632.9066355169638
0.011052109529861487      633.1708610736031
0.011241629932518437      633.4546014150687
0.011431583715703804      633.757856541361
0.011622185507008923      634.0806264524798
0.011824959091632737      634.4007172970686
0.012026955383669057      634.7134210917985
0.012228431824642762      635.0187378366695
0.01242964785142546       635.3166675316818
0.012630863908182311      635.6072101768352
0.012832340438962243      635.8903657721299
0.01303433688029038       636.1661343175658
0.013237110673121513      636.4345158131429
0.013439884439981065      636.6808731209553
0.013641880855631786      636.9079241054604
0.013843357360932049      637.1156687666581
0.014044573392309304      637.3041071045484
0.014245789393714157      637.4732391191313
0.014447265809213447      637.6230648104066
0.014649262075581083      637.7535841783747
0.01485203563424549       637.8647972230353
0.015042635756515686      637.9562454621889
0.015232588937700405      638.0311006684511
0.015422109593635547      638.0893628418216
0.015611413609866287      638.1310319823009
0.015800717613118194      638.1561080898887
0.01599023823016135       638.164591164585
0.01618019134667368       638.1564812063898
0.016370791378709844      638.1317782153033
0.016531080055689654      638.0853513992199
0.01669098205584727       638.0350582132365
0.016850625763988217      637.9808986573527
0.017010140188576394      637.9228727315688
0.017169654651752998      637.8609804358846
0.017329298475565455      637.7952217703003
0.017489200668197463      637.7255967348157
0.01764948961399131       637.6521053294308
0.01780977395039525       637.548932113387
0.017969673569674088      637.4340092682232
0.018129316344030533      637.3073367939396
0.01828883076335545       637.1689146905362
0.01844834562771156       637.018742958013
0.01860798973608443       636.8568215963699
0.018767891575146484      636.683150605607
0.018928179011779317      636.4977299857243
0.019118777792188433      636.217604794229
0.019308729417401523      635.9155529052647
0.019498248522316707      635.5915743188312
0.019687551213036395      635.2456690349288
0.019876854336831753      634.8778370535573
0.02006637473948738       634.4880783747168
0.020256328522671414      634.0763929984072
0.020446930313975188      633.6427809246285
0.02064970389860279       633.1277166247932
0.02085170019064286       632.6000954063346
0.02105317663162028       632.0599172692527
0.02125439265840668       631.5071822135474
0.021455608715167235      630.9418902392188
0.02165708524595088       630.3640413462668
0.021859081687282764      629.7736355346915
0.02206185548011769       629.1706728044929
0.022264629246980954      628.5735819609725
0.022466625662635346      627.9884855519742
0.022668102167939252      627.4153835774979
0.022869318199320136      626.8542760375434
0.023070534200728618      626.305162932111
0.023272010616231548      625.7680442612004
0.023474006882602858      625.242920024812
0.02367678044127098       624.7297902229454
0.02386738056353977       624.2357501990365
0.024057333744723106      623.7757884099454
0.02424685440065687       623.3499048556727
0.024436158416886237      622.9580995362179
0.02462546242013677       622.6003724515813
0.024814983037178547      622.2767236017628
0.025004936153689494      621.9871529867625
0.025195536185724256      621.7316606065801
0.0253558248627017        621.5110253106266
0.025515726862856965      621.319540245551
0.025675370570995573      621.1572054113537
0.02583488499558142       621.0240208080346
0.02599439945875569       620.9199864355935
0.02615404328256581       620.8451022940307
0.026313945475195465      620.799368383346
0.026474234420986946      620.7827847035393
0.026634518757392422      620.789640426931
0.02679441837667279       620.8221323966962
0.026954061151030752      620.8802606128352
0.02711357557035719       620.9640250753475
0.027273090434714816      621.0734257842336
0.027432734543089202      621.2084627394931
0.027592636382152785      621.3691359411263
0.02775292381878715       621.555445389133
0.02794352259919713       621.786411491909
0.02813347422441108       622.0502029418267
0.028322993329327112      622.346819738886
0.028512296020047647      622.6762618830868
0.02870159914384385       623.0385293744292
0.028891119546500334      623.4336222129133
0.02908107332968523       623.8615403985391
0.029271675120989875      624.3222839313064
0.02947444870561504       624.8293108748629
0.029676444997652693      625.3474930378245
0.02987792143862772       625.8768304201911
0.030079137465411736      626.4173230219626
0.030280353522169904      626.9689708431391
0.030481830052951155      627.5317738837207
0.030683826494280624      628.1057321437073
0.030886600287113104      628.6908456230989
0.03108937405397396       629.2664185477117
0.03129137046962597       629.8360853230364
0.03149284697492751       630.399845949073
0.03169406300630604       630.9577004258213
0.03189527900771217       631.5096487532813
0.03209675542321274       632.0556909314533
0.03229875168958166       632.595826960337
0.03250152524824737       633.1300568399325
0.03269212537051706       633.5632302472069
0.03288207855170127       633.9727510894804
0.033071599207635916      634.3586193667538
0.033260903223866156      634.7208350790264
0.033450207227117564      635.0593982262986
0.033639727844160215      635.3743088085702
0.03382968096067204       635.6655668258413
0.034020280992707694      635.9331722781119
0.034180569669686675      636.1258853800701
0.03434047166984347       636.306056922041
0.0345001153779836        636.4736869040245
0.03465962980257096       636.6287753260207
0.03481914426574675       636.7713221880294
0.034978788089558385      636.901327490051
0.03513869028218957       637.018791232085
0.035298979227982585      637.1237134141319
