% Model:              brazing.mph
% Version:            COMSOL 5.3.0.223
% Date:               Oct 24 2018, 04:22
% Dimension:          1
% Nodes:              145
% Expressions:        1
% Description:        Line graph
% x                       Height
0                         706.0731217274151
1.8037553861809572E-4     706.3408001282759
3.5951128344368776E-4     706.55315962298
5.377561773732229E-4      706.7102002115282
7.154644111300318E-4      706.8119218939202
8.929933875627798E-4      706.8583246701558
0.0010707015910786408     706.8494085402351
0.0012489464247083767     706.7851735041579
0.0014280820795340731     706.6656195619248
0.0016084574989771061     706.4907467135353
0.0017793134314883058     706.4225464811028
0.0019491114898538484     706.3291673393595
0.002118149876008701      706.2106092883059
0.0022867308232763497     706.0668723279416
0.002455159027530182      705.8979564582669
0.0026237400128558564     705.7038616792814
0.0027927784749207734     705.4845879909855
0.0029625766466419693     705.240135393379
0.0031334327293582195     704.970503886462
0.0033042867504275058     704.7953740602694
0.0034740828875811486     704.6146365070152
0.0036431193341009516     704.4282912267001
0.0038116983146850476     704.2363382193237
0.003980124516686077      704.0387774848859
0.004148703455848711      703.8356090233872
0.004317739819749776      703.6268328348268
0.004487535833529769      703.4124489192052
0.004658389691119368      703.1924572765226
0.0048387629974717405     703.0712439793306
0.005017896580971026      702.9537763726717
0.005196139373513023      702.8400544565463
0.0053738455543625        702.7300782309543
0.005551372514551955      702.6238476958956
0.005729078726427549      702.5213628513702
0.005907321580834967      702.4226236973781
0.006086455256670912      702.3276302339193
0.006266828685292636      702.236382460994
0.0064472042239161545     702.3891886179267
0.0066263399687470585     702.5491950092334
0.00680458486268183       702.7164016349146
0.0069822930964438265     702.89080849497
0.007159822072881748      703.0724155893995
0.007337530276402798      703.2612229182035
0.007515775110037768      703.4572304813818
0.007694910764868775      703.6604382789341
0.007875286184317232      703.8708463108608
0.008046142116827224      704.142746080661
0.008215940175191578      704.4056155378809
0.008384978561345261      704.6594546825205
0.008553559508611747      704.9042635145797
0.008721987712864422      705.1400420340588
0.008890568698188937      705.3667902409571
0.00905960716025268       705.5845081352754
0.009229405331972688      705.7931957170133
0.009400261414687729      705.9928529861709
0.009571115435747398      706.3156977625241
0.009740911572891598      706.6083442152005
0.009909948019402086      706.8707923442005
0.010078526999976944      707.1030421495236
0.010246953201968763      707.30509363117
0.010415532141122159      707.4769467891399
0.010584568505013912      707.6186016234332
0.010754364518784467      707.7300581340496
0.010925218376364454      707.8113163209894
0.011105591682722255      707.9733988813994
0.01128472526622686       708.0888865505423
0.011462968058774099      708.1577793284188
0.011640674239628768      708.1800772150283
0.011818201199823401      708.155780210371
0.01199590741170419       708.0848883144471
0.012174150266116847      707.9674015272561
0.012353283941958112      707.8033198487982
0.012533657370585264      707.5926432790737
0.01271403176453574       707.5652776271277
0.012893166387683227      707.4828583881975
0.013071410176518557      707.345385562284
0.013249117315197753      707.1528591493866
0.013426645199902413      706.9052791495054
0.013604352308338922      706.6026455626405
0.01378259603687098       706.2449583887917
0.013961730570013379      705.8322176279592
0.014142104844781908      705.3644232801431
0.014312959944399205      704.9687501484066
0.014482757184992078      704.5486294054248
0.014651794764271453      704.104061051198
0.014820374911240972      703.635045085726
0.014988802317395246      703.1415815090089
0.01515738250242126       702.6236703210466
0.015326420157607648      702.0813115218392
0.015496217511551624      701.5145051113865
0.015667072761367945      700.923251089689
0.01583792791479403       700.416412015222
0.016007725163749622      699.9166453594246
0.01617676270725794       699.4239511222971
0.01634534277588875       698.9383293038393
0.016513770062946447      698.4597799040512
0.01668235009015449       697.9883029229327
0.016851387551041475      697.5238983604839
0.017021184676619543      697.0665662167049
0.017192039666560827      696.6163064915957
0.017372413817338207      696.2490953893739
0.017551548228302124      695.9064014008081
0.017729791836073705      695.5882245258986
0.017907498824762332      695.2945647646451
0.018085026590318725      695.0254221170478
0.018262733610032132      694.7807965831066
0.018440977279666457      694.5606881628215
0.018620111782963036      694.3650968561926
0.018800486056004474      694.1940226632197
0.018980860449944497      694.2876084706525
0.019159995073081745      694.4114245399452
0.019338238861906984      694.5654708710981
0.01951594600057618       694.7497474641111
0.019693473885270874      694.9642543189842
0.019871180993697383      695.2089914357175
0.020049424722219357      695.4839588143105
0.02022855925535152       695.7891564547635
0.0204089335301096        696.124584357077
0.02057978862980686       696.524599137768
0.020749585870478253      696.9262239530758
0.020918623449835097      697.3294588030008
0.021087203596881453      697.7343036875426
0.021255631003112355      698.1407586067013
0.021424211188215206      698.5488235604772
0.021593248843479067      698.9584985488699
0.021763046197501558      699.3697835718795
0.02193390144739785       699.7826786295061
0.022104756600747556      700.3501528886268
0.02227455384962815       700.8912565103419
0.02244359139306247       701.4059894946521
0.022612171461619885      701.8943518415567
0.022780598748604386      702.3563435510562
0.022949178775739036      702.7919646231503
0.02311821623655202       703.2012150578389
0.023288013362055097      703.5840948551224
0.023458868351919994      703.9406040150005
0.02363924250270423       704.3671722098434
0.023818376913674867      704.7463349590978
0.023996620521453065      705.0780922627645
0.02417432751014825       705.3624441208431
0.02435185527571118       705.5993905333336
0.024529562295431146      705.7889315002361
0.02470780596507209       705.9310670215506
0.024886940468375387      706.0257970972768
0.025067314741423676      706.0731217274151
