% Model:              brazing.mph
% Version:            COMSOL 5.3.0.223
% Date:               Oct 24 2018, 04:44
% Dimension:          1
% Nodes:              145
% Expressions:        1
% Description:        Line graph
% x                       Height
0                         708.8239238083947
1.8037553861809572E-4     709.098154124079
3.5951128344368776E-4     709.3156131196683
5.377561773732229E-4      709.4763007951632
7.154644111300318E-4      709.5802171505633
8.929933875627798E-4      709.6273621858686
0.0010707015910786408     709.6177359010791
0.0012489464247083767     709.5513382961947
0.0014280820795340731     709.4281693712157
0.0016084574989771061     709.2482291261422
0.0017793134314883058     709.1783614168276
0.0019491114898538484     709.0826920866075
0.002118149876008701      708.9612211354821
0.0022867308232763497     708.8139485634513
0.002455159027530182      708.6408743705152
0.0026237400128558564     708.4419985566739
0.0027927784749207734     708.2173211219268
0.0029625766466419693     707.9668420662746
0.0031334327293582195     707.6905613897169
0.0033042867504275058     707.5120701929616
0.0034740828875811486     707.32775789615
0.0036431193341009516     707.1376244992827
0.0038116983146850476     706.9416700023593
0.003980124516686077      706.7398944053799
0.004148703455848711      706.5322977083446
0.004317739819749776      706.318879911253
0.004487535833529769      706.0996410141056
0.004658389691119368      705.8745810169021
0.0048387629974717405     705.7517928286463
0.005017896580971026      705.6326494926368
0.005196139373513023      705.517151008874
0.0053738455543625        705.4052973773574
0.005551372514551955      705.2970885980874
0.005729078726427549      705.1925246710638
0.005907321580834967      705.0916055962864
0.006086455256670912      704.9943313737555
0.006266828685292636      704.9007020034712
0.0064472042239161545     705.0587884952531
0.0066263399687470585     705.2240922050405
0.00680458486268183       705.3966131328337
0.0069822930964438265     705.5763512786326
0.007159822072881748      705.7633066424372
0.007337530276402798      705.9574792242475
0.007515775110037768      706.1588690240634
0.007694910764868775      706.3674760418847
0.007875286184317232      706.5833002777122
0.008046142116827224      706.8628295332479
0.008215940175191578      707.1329758199817
0.008384978561345261      707.3937391379139
0.008553559508611747      707.6451194870444
0.008721987712864422      707.8871168673733
0.008890568698188937      708.1197312789003
0.00905960716025268       708.3429627216254
0.009229405331972688      708.5568111955488
0.009400261414687729      708.7612767006707
0.009571115435747398      709.0930320048378
0.009740911572891598      709.3937645151507
0.009909948019402086      709.6634742316097
0.010078526999976944      709.9021611542147
0.010246953201968763      710.1098252829656
0.010415532141122159      710.2864666178624
0.010584568505013912      710.4320851589051
0.010754364518784467      710.5466809060939
0.010925218376364454      710.6302538594285
0.011105591682722255      710.7971084088783
0.01128472526622686       710.9162169669005
0.011462968058774099      710.9875795334955
0.011640674239628768      711.0111961086632
0.011818201199823401      710.9870666924035
0.01199590741170419       710.9151912847162
0.012174150266116847      710.7955698856017
0.012353283941958112      710.6282024950597
0.012533657370585264      710.4130891130903
0.01271403176453574       710.3875050077453
0.012893166387683227      710.3053692197494
0.013071410176518557      710.1666817491031
0.013249117315197753      709.9714425958061
0.013426645199902413      709.7196517598586
0.013604352308338922      709.4113092412603
0.01378259603687098       709.0464150400112
0.013961730570013379      708.6249691561118
0.014142104844781908      708.1469715895616
0.014312959944399205      707.7434705390788
0.014482757184992078      707.3148175166045
0.014651794764271453      706.8610125221393
0.014820374911240972      706.382055555683
0.014988802317395246      705.8779466172354
0.01515738250242126       705.3486857067967
0.015326420157607648      704.7942728243668
0.015496217511551624      704.214707969946
0.015667072761367945      703.6099911435339
0.01583792791479403       703.0926882172782
0.016007725163749622      702.5824159842574
0.01617676270725794       702.0791744444718
0.01634534277588875       701.5829635979212
0.016513770062946447      701.0937834446057
0.01668235009015449       700.6116339845254
0.016851387551041475      700.1365152176799
0.017021184676619543      699.6684271440695
0.017192039666560827      699.2073697636941
0.017372413817338207      698.8326177248696
0.017551548228302124      698.4826185245939
0.017729791836073705      698.1573721628678
0.017907498824762332      697.8568786396909
0.018085026590318725      697.581137955063
0.018262733610032132      697.3301501089845
0.018440977279666457      697.1039151014551
0.018620111782963036      696.9024329324751
0.018800486056004474      696.7257036020443
0.018980860449944497      696.8216813782714
0.019159995073081745      696.9483210824861
0.019338238861906984      697.105622714689
0.01951594600057618       697.2935862748799
0.019693473885270874      697.5122117630586
0.019871180993697383      697.7614991792254
0.020049424722219357      698.0414485233798
0.02022855925535152       698.3520597955222
0.0204089335301096        698.6933329956528
0.02057978862980686       699.1018667967397
0.020749585870478253      699.5117987077025
0.020918623449835097      699.9231287285414
0.021087203596881453      700.3358568592563
0.021255631003112355      700.7499830998472
0.021424211188215206      701.165507450314
0.021593248843479067      701.5824299106566
0.021763046197501558      702.0007504808754
0.02193390144739785       702.4204691609701
0.022104756600747556      702.9999571604569
0.02227455384962815       703.5523141658217
0.02244359139306247       704.077540177065
0.022612171461619885      704.5756351941865
0.022780598748604386      705.046599217186
0.022949178775739036      705.4904322460641
0.02311821623655202       705.9071342808204
0.023288013362055097      706.2967053214547
0.023458868351919994      706.6591453679675
0.02363924250270423       707.0939570419554
0.023818376913674867      707.4801985319024
0.023996620521453065      707.817869837809
0.02417432751014825       708.1069709596749
0.02435185527571118       708.3475018975001
0.024529562295431146      708.5394626512847
0.02470780596507209       708.6828532210286
0.024886940468375387      708.777673606732
0.025067314741423676      708.8239238083947
