% Model:              brazing.mph
% Version:            COMSOL 5.3.0.223
% Date:               Oct 24 2018, 01:57
% Dimension:          1
% Nodes:              193
% Expressions:        1
% Description:        Line graph
% x                       Height
0                         640.4522754790383
1.6028433640637486E-4     640.5278840960789
3.201839556876346E-4      640.5963346374438
4.7982673004648776E-4     640.6576271031328
6.393411493738095E-4      640.7117614931461
7.988560137323205E-4      640.7587378074838
9.58500122107595E-4       640.7985560461458
0.0011184019611720658     640.831216209132
0.0012786893978073315     640.8567182964425
0.0014692881782178572     640.8744324055114
0.0016592398034323465     640.8745787014931
0.0018487589083489172     640.8571571843879
0.00203806159906999       640.8221678541955
0.0022273647228667317     640.7696107109161
0.0024168851255237504     640.6994857545499
0.002606838908709185      640.6117929850964
0.0027974407000143733     640.5065324025559
0.003000214284638094      640.3732345301665
0.0032022105766743216     640.2241786470512
0.003403687017647933      640.0593647532095
0.0036049030444305387     639.8787928486416
0.0038061191011872996     639.6824629333477
0.004007595631967136      639.4703750073276
0.00420959207329518       639.2425290705812
0.00441236586612622       638.9989251231087
0.004615139632985625      638.723196388316
0.004817136048636202      638.4437641623268
0.005018612553936322      638.1606284451419
0.005219828585313435      637.8737892367609
0.005421044586718146      637.5832465371838
0.0056225210022172924     637.2890003464107
0.005824517268584787      636.9910506644414
0.006027290827249049      636.6893974912763
0.006217890949519272      636.3756433967856
0.006407844130704021      636.0813782002552
0.0065973647866391935     635.8066019016852
0.00678666880286996       635.5513145010756
0.006975972806121895      635.3155159984263
0.007165493423165078      635.0992063937373
0.007355446539677438      634.9023856870086
0.007546046571713631      634.7250538782404
0.00770633524869351       634.5932288751932
0.007866237248851195      634.4797297539899
0.008025880956992212      634.384556514631
0.008185395381580456      634.3077091571159
0.008344909844757132      634.249187681445
0.008504553668569658      634.2089920876183
0.008664455861201733      634.1871223756357
0.008824744806995652      634.1835785454971
0.008985029143401957      634.2010749611148
0.009144928762683142      634.2415917097024
0.009304571537041926      634.3051287912602
0.009464085956369179      634.3916862057881
0.00962360082072762       634.5012639532861
0.009783244929102828      634.6338620337541
0.009943146768167231      634.7894804471921
0.010103434204802428      634.9681191936003
0.010294032985212885      635.1719086215749
0.010483984610427306      635.3968123241334
0.01067350371534381       635.6428303012759
0.010862806406064813      635.9099625530024
0.011052109529861487      636.1982090793128
0.011241629932518437      636.5075698802071
0.011431583715703804      636.8380449556855
0.011622185507008923      637.1896343057479
0.011824959091632737      637.5388205270672
0.012026955383669057      637.8799786730793
0.012228431824642762      638.213108743784
0.01242964785142546       638.5382107391814
0.012630863908182311      638.8552846592715
0.012832340438962243      639.1643305040543
0.01303433688029038       639.4653482735298
0.013237110673121513      639.7583379676979
0.013439884439981065      640.0259932855852
0.013641880855631786      640.2730677555584
0.013843357360932049      640.499561377617
0.014044573392309304      640.7054741517617
0.014245789393714157      640.890806077992
0.014447265809213447      641.0555571563082
0.014649262075581083      641.1997273867102
0.01485203563424549       641.3233167691978
0.015042635756515686      641.4282298209266
0.015232588937700405      641.5156844720049
0.015422109593635547      641.5856807224321
0.015611413609866287      641.6382185722086
0.015800717613118194      641.6732980213344
0.01599023823016135       641.6909190698094
0.01618019134667368       641.6910817176337
0.016370791378709844      641.6737859648072
0.016531080055689654      641.6317105238412
0.01669098205584727       641.5866094728812
0.016850625763988217      641.5384828119264
0.017010140188576394      641.4873305409777
0.017169654651752998      641.4331526600347
0.017329298475565455      641.3759491690972
0.017489200668197463      641.3157200681657
0.01764948961399131       641.2524653572398
0.01780977395039525       641.1544717803995
0.017969673569674088      641.0444571439779
0.018129316344030533      640.9224214479747
0.01828883076335545       640.78836469239
0.01844834562771156       640.6422868772239
0.01860798973608443       640.4841880024761
0.018767891575146484      640.314068068147
0.018928179011779317      640.1319270742363
0.019118777792188433      639.8480896941019
0.019308729417401523      639.5407239820713
0.019498248522316707      639.2098299381444
0.019687551213036395      638.8554075623211
0.019876854336831753      638.4774568546018
0.02006637473948738       638.0759778149861
0.020256328522671414      637.6509704434743
0.020446930313975188      637.2024347400663
0.02064970389860279       636.6684872722828
0.02085170019064286       636.1209549949623
0.02105317663162028       635.5598379081044
0.02125439265840668       634.9851360117094
0.021455608715167235      634.3968493057772
0.02165708524595088       633.7949777903077
0.021859081687282764      633.179521465301
0.02206185548011769       632.5504803307572
0.022264629246980954      631.9272749725662
0.022466625662635346      631.3161419156378
0.022668102167939252      630.7170811599718
0.022869318199320136      630.1300927055684
0.023070534200728618      629.5551765524273
0.023272010616231548      628.9923327005488
0.023474006882602858      628.4415611499327
0.02367678044127098       627.9028619005791
0.02386738056353977       627.3837691888976
0.024057333744723106      626.9002758482648
0.02424685440065687       626.4523818786805
0.024436158416886237      626.0400872801446
0.02462546242013677       625.6633920526572
0.024814983037178547      625.3222961962182
0.025004936153689494      625.0167997108279
0.025195536185724256      624.7469025964859
0.0253558248627017        624.5138662774621
0.025515726862856965      624.3111081166961
0.025675370570995573      624.1386281141882
0.02583488499558142       623.9964262699383
0.02599439945875569       623.8845025839464
0.02615404328256581       623.8028570562124
0.026313945475195465      623.7514896867364
0.026474234420986946      623.7304004755184
0.026634518757392422      623.7349898510021
0.02679441837667279       623.766040391703
0.026954061151030752      623.8235520976208
0.02711357557035719       623.9075249687558
0.027273090434714816      624.0179590051077
0.027432734543089202      624.1548542066768
0.027592636382152785      624.3182105734629
0.02775292381878715       624.5080281054661
0.02794352259919713       624.7450401602741
0.02813347422441108       625.0163461586795
0.028322993329327112      625.3219461006826
0.028512296020047647      625.6618399862831
0.02870159914384385       626.0360278154811
0.028891119546500334      626.4445095882767
0.02908107332968523       626.8872853046697
0.029271675120989875      627.3643549646603
0.02947444870561504       627.8907969428235
0.029676444997652693      628.4283891280124
0.02987792143862772       628.977131520227
0.030079137465411736      629.5370241194672
0.030280353522169904      630.108066925733
0.030481830052951155      630.6902599390247
0.030683826494280624      631.283603159342
0.030886600287113104      631.8880965866849
0.03108937405397396       632.4811844445205
0.03129137046962597       633.0675735742146
0.03149284697492751       633.6472639757669
0.03169406300630604       634.2202556491777
0.03189527900771217       634.7865485944469
0.03209675542321274       635.3461428115744
0.03229875168958166       635.8990383005603
0.03250152524824737       636.4452350614047
0.03269212537051706       636.8907559171836
0.03288207855170127       637.3107003890996
0.033071599207635916      637.7050684771524
0.033260903223866156      638.0738601813422
0.033450207227117564      638.4170755016689
0.033639727844160215      638.7347144381328
0.03382968096067204       639.0267769907335
0.034020280992707694      639.2932631594712
0.034180569669686675      639.4823109276938
0.03434047166984347       639.6587383449801
0.0345001153779836        639.8225454113303
0.03465962980257096       639.9737321267443
0.03481914426574675       640.1122984912221
0.034978788089558385      640.2382445047637
0.03513869028218957       640.3515701673691
0.035298979227982585      640.4522754790383
