% Model:              brazing.mph
% Version:            COMSOL 5.3.0.223
% Date:               Oct 24 2018, 06:00
% Dimension:          1
% Nodes:              145
% Expressions:        1
% Description:        Line graph
% x                       Height
0                         670.4973572414505
1.8037553861809572E-4     670.7638666517591
3.5951128344368776E-4     670.9752735221151
5.377561773732229E-4      671.131577852519
7.154644111300318E-4      671.2327796429703
8.929933875627798E-4      671.2788788934691
0.0010707015910786408     671.2698756040159
0.0012489464247083767     671.2057697746097
0.0014280820795340731     671.0865614052515
0.0016084574989771061     670.9122504959406
0.0017793134314883058     670.8441827219565
0.0019491114898538484     670.7508661081392
0.002118149876008701      670.632300654489
0.0022867308232763497     670.4884863610057
0.002455159027530182      670.3194232276894
0.0026237400128558564     670.1251112545402
0.0027927784749207734     669.9055504415579
0.0029625766466419693     669.6607407887424
0.0031334327293582195     669.390682296094
0.0033042867504275058     669.2127835288255
0.0034740828875811486     669.029425943115
0.0036431193341009516     668.8406095389631
0.0038116983146850476     668.6463343163692
0.003980124516686077      668.4466002753337
0.004148703455848711      668.2414074158563
0.004317739819749776      668.0307557379373
0.004487535833529769      667.8146452415763
0.004658389691119368      667.5930759267736
0.0048387629974717405     667.4693473474521
0.005017896580971026      667.3500630155617
0.005196139373513023      667.2352229311027
0.0053738455543625        667.1248270940749
0.005551372514551955      667.0188755044786
0.005729078726427549      666.9173681623136
0.005907321580834967      666.8203050675796
0.006086455256670912      666.727686220277
0.006266828685292636      666.6395116204056
0.0064472042239161545     666.7905975832035
0.0066263399687470585     666.9494582017272
0.00680458486268183       667.1160934759771
0.0069822930964438265     667.290503405953
0.007159822072881748      667.472687991655
0.007337530276402798      667.662647233083
0.007515775110037768      667.860381130237
0.007694910764868775      668.0658896831169
0.007875286184317232      668.279172891723
0.008046142116827224      668.5538296524724
0.008215940175191578      668.8196765714977
0.008384978561345261      669.0767136487995
0.008553559508611747      669.3249408843775
0.008721987712864422      669.5643582782317
0.008890568698188937      669.7949658303621
0.00905960716025268       670.0167635407688
0.009229405331972688      670.2297514094515
0.009400261414687729      670.4339294364107
0.009571115435747398      670.7582903274259
0.009740911572891598      671.0523517738227
0.009909948019402086      671.3161137756013
0.010078526999976944      671.5495763327615
0.010246953201968763      671.7527394453034
0.010415532141122159      671.925603113227
0.010584568505013912      672.0681673365323
0.010754364518784467      672.1804321152191
0.010925218376364454      672.2623974492877
0.011105591682722255      672.4255874730283
0.01128472526622686       672.5419474743602
0.011462968058774099      672.6114774532839
0.011640674239628768      672.6341774097992
0.011818201199823401      672.6100473439061
0.01199590741170419       672.5390872556045
0.012174150266116847      672.4212971448947
0.012353283941958112      672.2566770117762
0.012533657370585264      672.0452268562495
0.01271403176453574       672.0117435381037
0.012893166387683227      671.9231823854776
0.013071410176518557      671.7795433983715
0.013249117315197753      671.5808265767855
0.013426645199902413      671.3270319207194
0.013604352308338922      671.018159430173
0.01378259603687098       670.6542091051468
0.013961730570013379      670.2351809456403
0.014142104844781908      669.7610749516539
0.014312959944399205      669.3589948811085
0.014482757184992078      668.9323832586851
0.014651794764271453      668.4812400843839
0.014820374911240972      668.0055653582049
0.014988802317395246      667.5053590801477
0.01515738250242126       666.9806212502128
0.015326420157607648      666.4313518684
0.015496217511551624      665.8575509347091
0.015667072761367945      665.2592184491406
0.01583792791479403       664.7427055507336
0.016007725163749622      664.2336894808516
0.01617676270725794       663.7321702394952
0.01634534277588875       663.238147826664
0.016513770062946447      662.751622242358
0.01668235009015449       662.2725934865775
0.016851387551041475      661.801061559322
0.017021184676619543      661.3370264605917
0.017192039666560827      660.8804881903869
0.017372413817338207      660.506057875524
0.017551548228302124      660.1571960800259
0.017729791836073705      659.833902803893
0.017907498824762332      659.536178047125
0.018085026590318725      659.264021809722
0.018262733610032132      659.0174340916839
0.018440977279666457      658.7964148930108
0.018620111782963036      658.6009642137026
0.018800486056004474      658.4310820537594
0.018980860449944497      658.5216945604134
0.019159995073081745      658.6435197364316
0.019338238861906984      658.7965575818146
0.01951594600057618       658.980808096562
0.019693473885270874      659.1962712806737
0.019871180993697383      659.4429471341501
0.020049424722219357      659.7208356569911
0.02022855925535152       660.0299368491962
0.0204089335301096        660.3702507107662
0.02057978862980686       660.7748270180723
0.020749585870478253      661.1817750013477
0.020918623449835097      661.5910946605925
0.021087203596881453      662.0027859958064
0.021255631003112355      662.4168490069898
0.021424211188215206      662.8332836941424
0.021593248843479067      663.2520900572645
0.021763046197501558      663.6732680963555
0.02193390144739785       664.0968178114161
0.022104756600747556      664.6702114356774
0.02227455384962815       665.2173506111528
0.02244359139306247       665.7382353378429
0.022612171461619885      666.2328656157474
0.022780598748604386      666.7012414448665
0.022949178775739036      667.1433628251998
0.02311821623655202       667.5592297567476
0.023288013362055097      667.9488422395096
0.023458868351919994      668.3122002734865
0.02363924250270423       668.7451768654107
0.023818376913674867      669.1306081140194
0.023996620521453065      669.468494019313
0.02417432751014825       669.758834581291
0.02435185527571118       670.0016297999537
0.024529562295431146      670.196879675301
0.02470780596507209       670.3445842073329
0.024886940468375387      670.4447433960491
0.025067314741423676      670.4973572414505
