% Model:              brazing.mph
% Version:            COMSOL 5.3.0.223
% Date:               Oct 24 2018, 04:05
% Dimension:          1
% Nodes:              145
% Expressions:        1
% Description:        Line graph
% x                       Height
0                         695.4602655042025
1.8037553861809572E-4     695.7251638673056
3.5951128344368776E-4     695.9352752917796
5.377561773732229E-4      696.090599777625
7.154644111300318E-4      696.1911373248417
8.929933875627798E-4      696.2368879334296
0.0010707015910786408     696.2278516033887
0.0012489464247083767     696.1640283347189
0.0014280820795340731     696.0454181274202
0.0016084574989771061     695.872020981493
0.0017793134314883058     695.804342454542
0.0019491114898538484     695.7116842691485
0.002118149876008701      695.5940464253126
0.0022867308232763497     695.4514289230342
0.002455159027530182      695.2838317623134
0.0026237400128558564     695.0912549431501
0.0027927784749207734     694.8736984655444
0.0029625766466419693     694.6311623294962
0.0031334327293582195     694.3636465350057
0.0033042867504275058     694.1890538355519
0.0034740828875811486     694.0089758673203
0.0036431193341009516     693.8234126303108
0.0038116983146850476     693.6323641245237
0.003980124516686077      693.4358303499586
0.004148703455848711      693.2338113066156
0.004317739819749776      693.026306994495
0.004487535833529769      692.8133174135965
0.004658389691119368      692.5948425639201
0.0048387629974717405     692.4739179588943
0.005017896580971026      692.3569677817926
0.005196139373513023      692.2439920326157
0.0053738455543625        692.1349907113632
0.005551372514551955      692.0299638180353
0.005729078726427549      691.9289113526316
0.005907321580834967      691.8318333151525
0.006086455256670912      691.7387297055978
0.006266828685292636      691.6496005239678
0.0064472042239161545     691.8010512047962
0.0066263399687470585     691.9598585823462
0.00680458486268183       692.1260226566185
0.0069822930964438265     692.2995434276124
0.007159822072881748      692.4804208953284
0.007337530276402798      692.6686550597663
0.007515775110037768      692.864245920926
0.007694910764868775      693.0671934788077
0.007875286184317232      693.2774977334113
0.008046142116827224      693.5485586430926
0.008215940175191578      693.810745003421
0.008384978561345261      694.0640568143965
0.008553559508611747      694.3084940760192
0.008721987712864422      694.5440567882888
0.008890568698188937      694.7707449512055
0.00905960716025268       694.9885585647695
0.009229405331972688      695.1974976289803
0.009400261414687729      695.3975621438383
0.009571115435747398      695.7188000173234
0.009740911572891598      696.0100300371769
0.009909948019402086      696.2712522033995
0.010078526999976944      696.5024665159909
0.010246953201968763      696.703672974951
0.010415532141122159      696.8748715802799
0.010584568505013912      697.0160623319775
0.010754364518784467      697.1272452300441
0.010925218376364454      697.2084202744793
0.011105591682722255      697.3699206514767
0.01128472526622686       697.4851119061852
0.011462968058774099      697.5539940386051
0.011640674239628768      697.5765670487361
0.011818201199823401      697.5528309365784
0.01199590741170419       697.4827857021319
0.012174150266116847      697.3664313453964
0.012353283941958112      697.2037678663722
0.012533657370585264      696.9947952650595
0.01271403176453574       696.9659379762307
0.012893166387683227      696.882439948066
0.013071410176518557      696.7443011805658
0.013249117315197753      696.55152167373
0.013426645199902413      696.3041014275585
0.013604352308338922      696.0020404420512
0.01378259603687098       695.6453387172083
0.013961730570013379      695.2339962530297
0.014142104844781908      694.7680130495153
0.014312959944399205      694.3735766475122
0.014482757184992078      693.9548439889957
0.014651794764271453      693.5118150739663
0.014820374911240972      693.0444899024236
0.014988802317395246      692.5528684743678
0.01515738250242126       692.0369507897988
0.015326420157607648      691.4967368487165
0.015496217511551624      690.9322266511209
0.015667072761367945      690.3434201970124
0.01583792791479403       689.8374050176291
0.016007725163749622      689.3385388548346
0.01617676270725794       688.8468217086291
0.01634534277588875       688.3622535790128
0.016513770062946447      687.8848344659851
0.01668235009015449       687.4145643695467
0.016851387551041475      686.951443289697
0.017021184676619543      686.4954712264363
0.017192039666560827      686.0466481797646
0.017372413817338207      685.679766711975
0.017551548228302124      685.3375271403468
0.017729791836073705      685.01992946488
0.017907498824762332      684.7269736855745
0.018085026590318725      684.4586598024305
0.018262733610032132      684.2149878154478
0.018440977279666457      683.9959577246264
0.018620111782963036      683.8015695299661
0.018800486056004474      683.6318232314676
0.018980860449944497      683.7233618144802
0.019159995073081745      683.8451956094297
0.019338238861906984      683.9973246163163
0.01951594600057618       684.1797488351399
0.019693473885270874      684.3924682659004
0.019871180993697383      684.6354829085981
0.020049424722219357      684.9087927632326
0.02022855925535152       685.212397829804
0.0204089335301096        685.5462981083127
0.02057978862980686       685.9440772871693
0.020749585870478253      686.3437014232147
0.020918623449835097      686.7451705164491
0.021087203596881453      687.1484845668726
0.021255631003112355      687.553643574485
0.021424211188215206      687.9606475392864
0.021593248843479067      688.3694964612766
0.021763046197501558      688.7801903404559
0.02193390144739785       689.1927291768243
0.022104756600747556      689.7571552018898
0.02227455384962815       690.2954483273876
0.02244359139306247       690.8076085533183
0.022612171461619885      691.2936358796815
0.022780598748604386      691.7535303064773
0.022949178775739036      692.1872918337058
0.02311821623655202       692.5949204613668
0.023288013362055097      692.9764161894603
0.023458868351919994      693.3317790179867
0.02363924250270423       693.7565027498265
0.023818376913674867      694.1341701733232
0.023996620521453065      694.4647812884773
0.02417432751014825       694.7483360952886
0.02435185527571118       694.984834593757
0.024529562295431146      695.1742767838826
0.02470780596507209       695.3166626656654
0.024886940468375387      695.4119922391053
0.025067314741423676      695.4602655042025
