% Model:              brazing.mph
% Version:            COMSOL 5.3.0.223
% Date:               Oct 24 2018, 01:10
% Dimension:          1
% Nodes:              225
% Expressions:        1
% Description:        Line graph
% x                       Height
0                         657.5441890911691
2.3022181212578358E-4     657.4087885328111
4.5999325066962656E-4     657.2470973248351
6.894940081029028E-4      657.0591154672411
9.189044129547812E-4      656.8448429600292
0.001148405006736289      656.6042798031996
0.0013781761183620641     656.3374259967514
0.001608397441069865      656.0442815406856
0.001839314118928521      655.3533646258103
0.0020697760201574002     654.6671154449004
0.002299964597801726      653.9855339979556
0.0025300619515304015     653.3086202849764
0.0027602503975112853     652.6363743059626
0.0029907120357255193     651.9687960609139
0.003221628319839081      651.3058855498306
0.0034518885683530987     650.427352668837
0.0036816980188178403     649.5412814996895
0.003911236592567028      648.6476720423884
0.004140684848157368      647.7465242969336
0.004370223557282477      646.8378382633254
0.004600033278179856      645.921613941563
0.004830293931548535      644.9978513316471
0.005060048526376791      643.8852895619008
0.005289355629682316      642.7859875065218
0.005518393850920054      641.6999451655101
0.005747342428834         640.6271625388657
0.00597638081262499       639.567639626589
0.006205688240655705      638.5213764286791
0.006435443321622868      637.4883729451367
0.006665339619110656      636.3720881312058
0.006894787442849326      635.2767801958805
0.007123965728649401      634.2024491391603
0.007353054043912613      633.1490949610456
0.007582232167524012      632.1167176615365
0.007811679667266285      631.1053172406324
0.008041575479707366      630.114893698334
0.008271887219609135      629.1150387050654
0.008501747728772392      628.15096384443
0.008731337046705121      627.2226691164273
0.008960835851156599      626.3301545210575
0.009190425033567954      625.4734200583209
0.009420285272008154      624.652465728217
0.009650596606620833      623.867291530746
0.009881512912836019      623.1078981273309
0.010111974573021956      622.3975830192833
0.010342163040896366      621.7363462066027
0.010572260416492441      621.1241876892892
0.010802449016030204      620.5611074673435
0.011032910939230619      620.0471055407645
0.011263827639190652      619.5821819095531
0.011494048967061755      619.1388596293303
0.011723820083820682      618.7706476268504
0.011953320682717213      618.4775459021133
0.012182731092678062      618.259554455119
0.012412231855226382      618.1166732858677
0.012642003298903411      618.048902394359
0.012872225116192546      618.0562417805932
0.013102446994778118      617.9147503300369
0.013332218499393473      617.8692593198246
0.01356171932266464       617.9197687499558
0.013791129793276359      618.0662786204308
0.01402063045289555       618.3087889312499
0.014250401630592404      618.6472996824123
0.014480623019759359      619.0818108739187
0.014711539835704642      619.3448383050682
0.014942001874208778      619.6901086600711
0.015172190588640395      620.1176219389275
0.01540228807899374       620.6273781416373
0.015632476661762654      621.2193772682009
0.015862938437253588      621.8936193186177
0.01609385485945594       622.6501042928879
0.016324115336228646      623.3195857974044
0.016553925013622208      624.0286414403971
0.016783463813500554      624.7772712218657
0.017012912294953733      625.5654751418106
0.01724245123020976       626.3932532002318
0.01747226117803945       627.2606053971288
0.017702522059672054      628.1675317325021
0.017932276794613372      629.0741488639626
0.018161584037218948      630.0072277130025
0.018390622397267263      630.9667682796219
0.018619571113827754      631.9527705638204
0.018848609636427344      632.9652345655986
0.019077917203754128      634.0041602849558
0.019307672424828403      635.0695477218926
0.019537568573699274      636.0373645012951
0.01976701624968263       637.0215197197806
0.019996194388245302      638.0220133773488
0.020225282556443316      639.0388454739998
0.020454460532815345      640.072016009734
0.02068390788479834       641.1215249845508
0.020913803548616574      642.1873723984506
0.02114411498977932       643.0379099161453
0.021373975201947604      643.9024793973144
0.02160356422393484       644.7810808419576
0.02183306273279162       645.6737142500754
0.02206265161925901       646.5803796216678
0.02229251156070728       647.5010769567342
0.02252282259658549       648.4358062552751
0.022753738766914562      649.0380375666768
0.022984200292012823      649.6431294299002
0.023214388625279938      650.2510818449455
0.023444485866429166      650.8618948118126
0.023674674331359946      651.4755683305019
0.023905136119473275      652.0921024010127
0.024136052683548088      652.7114970233455
0.024366274021741702      652.9231873799442
0.024596045148762867      653.137804271555
0.024825545757885373      653.3553476981779
0.02505495617806012       653.5758176598127
0.02528445695083446       653.7992141564602
0.025514228404773787      654.0255371881193
0.025744450232385536      654.2547867547909
0.025974672267095825      654.1180105521382
0.026204443926923768      653.9611506855861
0.02643394490485871       653.7842071551343
0.02666335552995085       653.5871799607829
0.026892856344233315      653.3700691025322
0.02712262767714175       653.1328745803817
0.02735284922243193       652.8755963943318
0.027583766528201624      652.2165000189565
0.027814229053652367      651.5503745716898
0.028044418253299775      650.8772200525318
0.02827451622829193       650.1970364614823
0.028504705296278778      649.5098237985417
0.028735167558720572      648.8155820637094
0.028966084470753738      648.1143112569858
0.029196345605491433      647.2499823887197
0.02942615593701711       646.3558705489966
0.02965569538872289       645.4319757378161
0.029885144521236064      644.4782979551784
0.030114684108324883      643.494837201084
0.030344494710297387      642.481593475532
0.030574756249911007      641.4385667785231
0.030804511377321087      640.3026171431144
0.031033819010118435      639.1589613036687
0.031262857758987544      638.0075992601859
0.03149180686390927       636.848531012666
0.031720845775323685      635.6817565611095
0.031950153732830305      634.5072759055156
0.032179909346355486      633.3250890458849
0.0324098051544111        632.1553239715611
0.032639252491552244      630.9938986286307
0.03286843029245836       629.840813017094
0.0330975181233935        628.6960671369509
0.03332669576210278       627.5596609882015
0.03355614277523119       626.4315945708454
0.033786038098215655      625.311867884883
0.034016348759356954      624.2428357531946
0.03424620819605658       623.2083968077927
0.034475796445315066      622.2085510486774
0.03470529418235937       621.2432984758485
0.03493488229610333       620.3126390893063
0.035164741462093585      619.4165728890504
0.03539505171796626       618.5550998750812
0.035625967353597694      617.7568091172832
0.03585642834714083       617.0141970156989
0.036086616150743635      616.327263570328
0.03631671286286018       615.6960087811706
0.03654690079812825       615.1204326482269
0.036777362054689705      614.6005351714964
0.03700827808407173       614.1363163509797
0.03723849938140827       613.7242827893233
0.03746827046781093       613.3936659897032
0.03769777103645843       613.1444659521196
0.03792718141620601       612.9766826765724
0.0381566821485052        612.8903161630618
0.03838645356182577       612.8853664115873
0.03861667534858004       612.9618334221492
0.038846895274787324      612.9393978637942
0.039076664838430766      613.0179868500395
0.03930616372759302       613.1976003808848
0.03953557226638858       613.4782384563304
0.039765070991905134      613.8599010763766
0.039994840228642616      614.3425882410223
0.040225059665450036      614.9262999502687
0.04045597761776665       615.3933195644431
0.04068644078597457       615.9437218142497
0.04091663062609736       616.5775066996879
0.041146729240799984      617.2946742207581
0.04137691894925231       618.0952243774607
0.04160738185443156       618.9791571697947
0.04183829941298208       619.9464725977609
0.04206856149768976       620.8592620013801
0.04229837277362926       621.8089601229443
0.04252791316640542       622.7955669624534
0.04275736323887129       623.8190825199079
0.04298690376702529       624.8795067953074
0.04321671531340127       625.9768397886517
0.04344697780296935       627.1110814999412
0.043676731016186174      628.3012004994981
0.04390603674591497       629.5007207159762
0.04413507359840861       630.709642149375
0.04436402080919017       631.927964799695
0.044593057824233256      633.1556886669362
0.04482236387867965       634.392813751098
0.045052117578024006      635.6393400521808
0.045282012653644836      636.890560808696
0.045511459262636354      638.1271106768263
0.04574063633797325       639.3489896565712
0.04596972344420469       640.5561977479312
0.046198900357357554      641.7487349509063
0.046428346642361965      642.9266012654958
0.04665824123294997       644.0897966917006
0.04688855484177433       645.1653459799286
0.04711841720894409       646.2201626066754
0.04734800837831597       647.2542465719408
0.04757750903201372       648.2675978757248
0.047807100065861544      649.2602165180281
0.04803696216230292       650.2321024988496
0.04826727536583021       651.1832558181901
0.048498193048686675      651.9228365311117
0.048728656077441146      652.6392541338104
0.04895884590902903       653.3325086262864
0.04918894464672031       654.0026000085398
0.04941913460997818       654.649528280571
0.04964959790176041       655.2732934423789
0.04988051597838159       655.8738954939644
0.05011073543954296       656.1400205453272
0.0503405047004922        656.3969750365789
0.05057000345013497       656.6447589677191
0.05079941201302823       656.8833723387482
0.05102891092631677       657.1128151496665
0.05125868051417213       657.3330874004732
0.051488900464733596      657.5441890911691
