% Model:              brazing.mph
% Version:            COMSOL 5.3.0.223
% Date:               Oct 24 2018, 04:50
% Dimension:          1
% Nodes:              225
% Expressions:        1
% Description:        Line graph
% x                       Height
0                         744.5720573647116
2.3022181212578358E-4     744.4119914647262
4.5999325066962656E-4     744.225055488125
6.894940081029028E-4      744.0112494349077
9.189044129547812E-4      743.7705733050744
0.001148405006736289      743.5030270986254
0.0013781761183620641     743.2086108155601
0.001608397441069865      742.887324455879
0.001839314118928521      742.1357782171203
0.0020697760201574002     741.3879563643209
0.002299964597801726      740.6438588974804
0.0025300619515304015     739.9034858165995
0.0027602503975112853     739.166837121678
0.0029907120357255193     738.4339128127153
0.003221628319839081      737.7047128897121
0.0034518885683530987     736.7448542082891
0.0036816980188178403     735.7731324137976
0.003911236592567028      734.7895475062373
0.004140684848157368      733.7940994856087
0.004370223557282477      732.7867883519118
0.004600033278179856      731.767614105146
0.004830293931548535      730.7365767453119
0.005060048526376791      729.5208868221622
0.005289355629682316      728.3160498741709
0.005518393850920054      727.1220659013375
0.005747342428834         725.9389349036627
0.00597638081262499       724.7666568811464
0.006205688240655705      723.605231833788
0.006435443321622868      722.4546597615882
0.006665339619110656      721.2269699893974
0.006894787442849326      720.018945571373
0.007123965728649401      718.830586507515
0.007353054043912613      717.6618927978236
0.007582232167524012      716.5128644422991
0.007811679667266285      715.3835014409408
0.008041575479707366      714.2738037937492
0.008271887219609135      713.1621640458694
0.008501747728772392      712.0874110648355
0.008731337046705121      711.0495448506473
0.008960835851156599      710.0485654033047
0.009190425033567954      709.0844727228081
0.009420285272008154      708.1572668091569
0.009650596606620833      707.2669476623516
0.009881512912836019      706.4092499273219
0.010111974573021956      705.6036121714343
0.010342163040896366      704.850034394689
0.010572260416492441      704.1485165970862
0.010802449016030204      703.499058778626
0.011032910939230619      702.9016609393078
0.011263827639190652      702.3563230791322
0.011494048967061755      701.8373637538198
0.011723820083820682      701.3996047716289
0.011953320682717213      701.0430461325593
0.012182731092678062      700.767687836611
0.012412231855226382      700.5735298837845
0.012642003298903411      700.4605722740789
0.012872225116192546      700.428815007495
0.013102446994778118      700.2313373510818
0.013332218499393473      700.1387340716431
0.01356171932266464       700.1510051691788
0.013791129793276359      700.2681506436885
0.01402063045289555       700.490170495173
0.014250401630592404      700.8170647236313
0.014480623019759359      701.2488333290643
0.014711539835704642      701.4929538130787
0.014942001874208778      701.8265403482459
0.015172190588640395      702.2495929345664
0.01540228807899374       702.7621115720395
0.015632476661762654      703.3640962606661
0.015862938437253588      704.0555470004451
0.01609385485945594       704.8364637913774
0.016324115336228646      705.5259574090732
0.016553925013622208      706.2574695489434
0.016783463813500554      707.0310002109876
0.017012912294953733      707.846549395206
0.01724245123020976       708.704117101599
0.01747226117803945       709.6037033301656
0.017702522059672054      710.5453080809067
0.017932276794613372      711.4966199350218
0.018161584037218948      712.475158180012
0.018390622397267263      713.480922815877
0.018619571113827754      714.5139138426167
0.018848609636427344      715.5741312602318
0.019077917203754128      716.6615750687213
0.019307672424828403      717.776245268086
0.019537568573699274      718.8025955012546
0.01976701624968263       719.8440508496732
0.019996194388245302      720.9006113133423
0.020225282556443316      721.9722768922613
0.020454460532815345      723.0590475864311
0.02068390788479834       724.1609233958505
0.020913803548616574      725.2779043205204
0.02114411498977932       726.1852240944875
0.021373975201947604      727.104646861046
0.02160356422393484       728.0361726201962
0.02183306273279162       728.9798013719379
0.02206265161925901       729.9355331162716
0.02229251156070728       730.9033678531966
0.02252282259658549       731.8833055827134
0.022753738766914562      732.5319793054056
0.022984200292012823      733.1806191085566
0.023214388625279938      733.8292249921661
0.023444485866429166      734.4777969562347
0.023674674331359946      735.1263350007624
0.023905136119473275      735.7748391257484
0.024136052683548088      736.4233093311934
0.024366274021741702      736.6598675762015
0.024596045148762867      736.8986372942181
0.024825545757885373      737.1396184852437
0.02505495617806012       737.3828111492778
0.02528445695083446       737.6282152863208
0.025514228404773787      737.8758308963722
0.025744450232385536      738.1256579794326
0.025974672267095825      737.971614367351
0.026204443926923768      737.8001930243541
0.02643394490485871       737.6113939504419
0.02666335552995085       737.4052171456141
0.026892856344233315      737.1816626098712
0.02712262767714175       736.9407303432125
0.02735284922243193       736.6824203456387
0.027583766528201624      735.983660671636
0.027814229053652367      735.2798747068049
0.028044418253299775      734.5710624511446
0.02827451622829193       733.8572239046556
0.028504705296278778      733.1383590673381
0.028735167558720572      732.4144679391915
0.028966084470753738      731.6855505202162
0.029196345605491433      730.7728630673618
0.02942615593701711       729.828236351646
0.02965569538872289       728.8516703730689
0.029885144521236064      727.8431651316306
0.030114684108324883      726.8027206273315
0.030344494710297387      725.7303368601706
0.030574756249911007      724.6260138301488
0.030804511377321087      723.4329551911014
0.031033819010118435      722.2307564904593
0.031262857758987544      721.019417728222
0.03149180686390927       719.7989389043901
0.031720845775323685      718.5693200189635
0.031950153732830305      717.3305610719418
0.032179909346355486      716.0826620633255
0.0324098051544111        714.8562741754824
0.032639252491552244      713.6380831696874
0.03286843029245836       712.42808904594
0.0330975181233935        711.226291804241
0.03332669576210278       710.03269144459
0.03355614277523119       708.8472879669866
0.033786038098215655      707.6700813714314
0.034016348759356954      706.5533359157625
0.03424620819605658       705.4736381091886
0.034475796445315066      704.4309879517093
0.03470529418235937       703.4253854433248
0.03493488229610333       702.4568305840354
0.035164741462093585      701.5253233738404
0.03539505171796626       700.6308638127404
0.035625967353597694      699.8079514774242
0.03585642834714083       699.0450833040696
0.036086616150743635      698.3422592926767
0.03631671286286018       697.6994794432452
0.03654690079812825       697.1167437557757
0.036777362054689705      696.5940522302674
0.03700827808407173       696.1314048667209
0.03723849938140827       695.7271445659394
0.03746827046781093       695.410708152139
0.03769777103645843       695.1820956253202
0.03792718141620601       695.0413069854832
0.0381566821485052        694.9883422326276
0.03838645356182577       695.0232013667531
0.03861667534858004       695.1458843878604
0.038846895274787324      695.1616569066251
0.039076664838430766      695.286335340659
0.03930616372759302       695.519919689962
0.03953557226638858       695.8624099545341
0.039765070991905134      696.3138061343757
0.039994840228642616      696.8741082294863
0.040225059665450036      697.5433162398662
0.04045597761776665       698.0884953294991
0.04068644078597457       698.7228694912457
0.04091663062609736       699.446438725105
0.041146729240799984      700.259203031078
0.04137691894925231       701.1611624091644
0.04160738185443156       702.1523168593637
0.04183829941298208       703.2326663816766
0.04206856149768976       704.2581834729514
0.04229837277362926       705.3220689448209
0.04252791316640542       706.4243227972853
0.04275736323887129       707.5649450303447
0.04298690376702529       708.7439356439991
0.04321671531340127       709.9612946382482
0.04344697780296935       711.2170220130923
0.043676731016186174      712.5354125106849
0.04390603674591497       713.8622283571283
0.04413507359840861       715.1974695524225
0.04436402080919017       716.5411360965677
0.044593057824233256      717.8932279895641
0.04482236387867965       719.2537452314111
0.045052117578024006      720.6226878221094
0.045282012653644836      722.0028741657752
0.045511459262636354      723.3646232926747
0.04574063633797325       724.7079352028082
0.04596972344420469       726.0328098961758
0.046198900357357554      727.3392473727775
0.046428346642361965      728.6272476326128
0.04665824123294997       729.8968106756823
0.04688855484177433       731.0816624034685
0.04711841720894409       732.2406092989313
0.04734800837831597       733.3736513620704
0.04757750903201372       734.4807885928859
0.047807100065861544      735.5620209913781
0.04803696216230292       736.6173485575463
0.04826727536583021       737.6467712913912
0.048498193048686675      738.4638696020681
0.048728656077441146      739.2515495151035
0.04895884590902903       740.0098110304966
0.04918894464672031       740.738654148248
0.04941913460997818       741.4380788683579
0.04964959790176041       742.1080851908255
0.04988051597838159       742.7486731156515
0.05011073543954296       743.0495691423992
0.0503405047004922        743.336994314948
0.05057000345013497       743.6109486332982
0.05079941201302823       743.8714320974494
0.05102891092631677       744.1184447074024
0.05125868051417213       744.3519864631563
0.051488900464733596      744.5720573647116
