% Model:              brazing.mph
% Version:            COMSOL 5.3.0.223
% Date:               Oct 24 2018, 00:01
% Dimension:          1
% Nodes:              193
% Expressions:        1
% Description:        Line graph
% x                       Height
0                         590.4012286972205
1.6028433640637486E-4     590.4817009659791
3.201839556876346E-4      590.5551319498544
4.7982673004648776E-4     590.6215216488465
6.393411493738095E-4      590.6808700629553
7.988560137323205E-4      590.7331771921807
9.58500122107595E-4       590.7784430365227
0.0011184019611720658     590.8166675959815
0.0012786893978073315     590.8478508705568
0.0014692881782178572     590.8729431997937
0.0016592398034323465     590.881555359797
0.0018487589083489172     590.8736873505666
0.00203806159906999       590.8493391721028
0.0022273647228667317     590.8085108244054
0.0024168851255237504     590.7512023074743
0.002606838908709185      590.6774136213098
0.0027974407000143733     590.5871447659117
0.003000214284638094      590.4679495483388
0.0032022105766743216     590.3332216506976
0.003403687017647933      590.1829610729883
0.0036049030444305387     590.0171678152107
0.0038061191011872996     589.8358418773648
0.004007595631967136      589.6389832594508
0.00420959207329518       589.4265919614686
0.00441236586612622       589.1986679834181
0.004615139632985625      588.9389033667171
0.004817136048636202      588.6758763582195
0.005018612553936322      588.4095869579252
0.005219828585313435      588.140035165834
0.005421044586718146      587.867220981946
0.0056225210022172924     587.5911444062613
0.005824517268584787      587.3118054387797
0.006027290827249049      587.0292040795015
0.006217890949519272      586.7344964918053
0.006407844130704021      586.4579415207453
0.0065973647866391935     586.1995391663218
0.00678666880286996       585.9592894285344
0.006975972806121895      585.7371923073833
0.007165493423165078      585.5332478028686
0.007355446539677438      585.3474559149901
0.007546046571713631      585.1798166437479
0.00770633524869351       585.0544890930222
0.007866237248851195      584.9468270567895
0.008025880956992212      584.85683053505
0.008185395381580456      584.7844995278035
0.008344909844757132      584.7298340350501
0.008504553668569658      584.6928340567898
0.008664455861201733      584.6734995930225
0.008824744806995652      584.6718306437483
0.008985029143401957      584.6894863628872
0.009144928762683142      584.728745954818
0.009304571537041926      584.7896094195406
0.009464085956369179      584.872076757055
0.00962360082072762       584.976147967361
0.009783244929102828      585.1018230504591
0.009943146768167231      585.2491020063488
0.010103434204802428      585.4179848350304
0.010294032985212885      585.6131524663077
0.010483984610427306      585.8278779239276
0.01067350371534381       586.06216120789
0.010862806406064813      586.3160023181948
0.011052109529861487      586.5894012548422
0.011241629932518437      586.882358017832
0.011431583715703804      587.1948726071644
0.011622185507008923      587.5269450228392
0.011824959091632737      587.8530604810674
0.012026955383669057      588.1719761566449
0.012228431824642762      588.4836920495718
0.01242964785142546       588.7882081598482
0.012630863908182311      589.0855244874739
0.012832340438962243      589.375641032449
0.01303433688029038       589.6585577947735
0.013237110673121513      589.9342747744474
0.013439884439981065      590.1808485636353
0.013641880855631786      590.408033935468
0.013843357360932049      590.6158308899458
0.014044573392309304      590.8042394270683
0.014245789393714157      590.9732595468358
0.014447265809213447      591.1228912492484
0.014649262075581083      591.2531345343058
0.01485203563424549       591.3639894020082
0.015042635756515686      591.4550644001836
0.015232588937700405      591.5296164202108
0.015422109593635547      591.58764546209
0.015611413609866287      591.6291515258212
0.015800717613118194      591.6541346114043
0.01599023823016135       591.6625947188394
0.01618019134667368       591.6545318481265
0.016370791378709844      591.6299459992654
0.016531080055689654      591.5828528742317
0.01669098205584727       591.5323958146108
0.016850625763988217      591.4785748204032
0.017010140188576394      591.4213898916087
0.017169654651752998      591.3608410282271
0.017329298475565455      591.2969282302588
0.017489200668197463      591.2296514977035
0.01764948961399131       591.1590108305612
0.01780977395039525       591.0570899874624
0.017969673569674088      590.9434553246799
0.018129316344030533      590.8181068422136
0.01828883076335545       590.6810445400635
0.01844834562771156       590.5322684182295
0.01860798973608443       590.3717784767117
0.018767891575146484      590.1995747155102
0.018928179011779317      590.0156571346248
0.019118777792188433      589.7385491266947
0.019308729417401523      589.4393581934925
0.019498248522316707      589.1180843350181
0.019687551213036395      588.7747275512717
0.019876854336831753      588.4092878422531
0.02006637473948738       588.0217652079623
0.020256328522671414      587.6121596483995
0.020446930313975188      587.1804711635644
0.02064970389860279       586.6581534056369
0.02085170019064286       586.1232039342779
0.02105317663162028       585.5756227494875
0.02125439265840668       585.0154098512656
0.021455608715167235      584.4425652396123
0.02165708524595088       583.8570889145276
0.021859081687282764      583.2589808760114
0.02206185548011769       582.6482411240638
0.022264629246980954      582.0362950435986
0.022466625662635346      581.4368073598944
0.022668102167939252      580.8497780729509
0.022869318199320136      580.2752071827687
0.023070534200728618      579.7130946893474
0.023272010616231548      579.163440592687
0.023474006882602858      578.6262448927877
0.02367678044127098       578.1015075896493
0.02386738056353977       577.5947640981203
0.024057333744723106      577.1224688456434
0.02424685440065687       576.6846218322186
0.024436158416886237      576.2812230578459
0.02462546242013677       575.9122725225253
0.024814983037178547      575.5777702262567
0.025004936153689494      575.2777161690403
0.025195536185724256      575.0121103508761
0.0253558248627017        574.7846876490036
0.025515726862856965      574.5867021134544
0.025675370570995573      574.4181537442288
0.02583488499558142       574.2790425413266
0.02599439945875569       574.1693685047479
0.02615404328256581       574.0891316344927
0.026313945475195465      574.0383319305608
0.026474234420986946      574.0169693929525
0.026634518757392422      574.0195767455633
0.02679441837667279       574.0483169225818
0.026954061151030752      574.1031899240074
0.02711357557035719       574.1841957498406
0.027273090434714816      574.2913344000812
0.027432734543089202      574.4246058747291
0.027592636382152785      574.5840101737845
0.02775292381878715       574.7695472972472
0.02794352259919713       575.0014043204416
0.02813347422441108       575.2666573636668
0.028322993329327112      575.5653064269229
0.028512296020047647      575.89735151021
0.02870159914384385       576.262792613528
0.028891119546500334      576.6616297368768
0.02908107332968523       577.0938628802566
0.029271675120989875      577.5594920436672
0.02947444870561504       578.0690446622033
0.029676444997652693      578.5907506698397
0.02987792143862772       579.1246100665763
0.030079137465411736      579.6706228524133
0.030280353522169904      580.2287890273506
0.030481830052951155      580.7991085913881
0.030683826494280624      581.381581544526
0.030886600287113104      581.9762078867641
0.03108937405397396       582.5579109879601
0.03129137046962597       583.133013340657
0.03149284697492751       583.7015149448546
0.03169406300630604       584.2634158005532
0.03189527900771217       584.8187159077524
0.03209675542321274       585.3674152664527
0.03229875168958166       585.9095138766536
0.03250152524824737       586.4450117383553
0.03269212537051706       586.878281871475
0.03288207855170127       587.287515833522
0.033071599207635916      587.672713624496
0.033260903223866156      588.0338752443976
0.033450207227117564      588.3710006932263
0.033639727844160215      588.6840899709821
0.03382968096067204       588.9731430776652
0.034020280992707694      589.2381600132755
0.034180569669686675      589.4261723168337
0.03434047166984347       589.6020049866589
0.0345001153779836        589.7656580227514
0.03465962980257096       589.9171314251109
0.03481914426574675       590.0564251937376
0.034978788089558385      590.1835393286315
0.03513869028218957       590.2984738297924
0.035298979227982585      590.4012286972205
