% Model:              brazing.mph
% Version:            COMSOL 5.3.0.223
% Date:               Oct 24 2018, 03:09
% Dimension:          1
% Nodes:              225
% Expressions:        1
% Description:        Line graph
% x                       Height
0                         699.6870063575992
2.3022181212578358E-4     699.5323842976148
4.5999325066962656E-4     699.3471327616581
6.894940081029028E-4      699.1312517497294
9.189044129547812E-4      698.8847412618287
0.001148405006736289      698.6076012979561
0.0013781761183620641     698.299831858111
0.001608397441069865      697.9614329422942
0.001839314118928521      697.217696980494
0.0020697760201574002     696.4747615029189
0.002299964597801726      695.7326265095686
0.0025300619515304015     694.9912920004433
0.0027602503975112853     694.2507579755433
0.0029907120357255193     693.5110244348679
0.003221628319839081      692.7720913784176
0.0034518885683530987     691.8141144918001
0.0036816980188178403     690.8450650837726
0.003911236592567028      689.8649431543352
0.004140684848157368      688.873748703488
0.004370223557282477      687.8714817312313
0.004600033278179856      686.8581422375643
0.004830293931548535      685.8337302224877
0.005060048526376791      684.6218289308028
0.005289355629682316      683.42138214436
0.005518393850920054      682.2323898631587
0.005747342428834         681.0548520871994
0.00597638081262499       679.8887688164822
0.006205688240655705      678.7341400510064
0.006435443321622868      677.5909657907728
0.006665339619110656      676.367879376648
0.006894787442849326      675.1656491841981
0.007123965728649401      673.9842752134231
0.007353054043912613      672.823757464323
0.007582232167524012      671.684095936898
0.007811679667266285      670.5652906311475
0.008041575479707366      669.467341547072
0.008271887219609135      668.3646535097744
0.008501747728772392      667.3000243189429
0.008731337046705121      666.2734539745774
0.008960835851156599      665.284942476678
0.009190425033567954      664.334489825245
0.009420285272008154      663.4220960202779
0.009650596606620833      662.547761061777
0.009881512912836019      661.7047116520232
0.010111974573021956      660.9149516362342
0.010342163040896366      660.1784810144103
0.010572260416492441      659.4952997865513
0.010802449016030204      658.8654079526575
0.011032910939230619      658.2888055127283
0.011263827639190652      657.7654924667643
0.011494048967061755      657.2693531316683
0.011723820083820682      656.8543853508927
0.011953320682717213      656.5205891244375
0.012182731092678062      656.2679644523031
0.012412231855226382      656.0965113344894
0.012642003298903411      656.0062297709958
0.012872225116192546      655.9971197618231
0.013102446994778118      655.8356999865406
0.013332218499393473      655.7775228519122
0.01356171932266464       655.8225883579377
0.013791129793276359      655.970896504617
0.01402063045289555       656.2224472919507
0.014250401630592404      656.577240719938
0.014480623019759359      657.0352767885794
0.014711539835704642      657.31942231389
0.014942001874208778      657.691372181462
0.015172190588640395      658.1511263912954
0.01540228807899374       658.6986849433903
0.015632476661762654      659.3340478377469
0.015862938437253588      660.0572150743646
0.01609385485945594       660.868186653244
0.016324115336228646      661.5941827933377
0.016553925013622208      662.362380714724
0.016783463813500554      663.172780417403
0.017012912294953733      664.0253819013749
0.01724245123020976       664.9201851666397
0.01747226117803945       665.8571902131969
0.017702522059672054      666.8363970410471
0.017932276794613372      667.8213741857564
0.018161584037218948      668.8333946956964
0.018390622397267263      669.8724585708669
0.018619571113827754      670.9385658112682
0.018848609636427344      672.0317164169005
0.019077917203754128      673.1519103877631
0.019307672424828403      674.2991477238567
0.019537568573699274      675.352814815925
0.01976701624968263       676.4213630578049
0.019996194388245302      677.5047924494958
0.020225282556443316      678.6031029909982
0.020454460532815345      679.7162946823123
0.02068390788479834       680.8443675234373
0.020913803548616574      681.9873215143739
0.02114411498977932       682.9180650897111
0.021373975201947604      683.8601540984508
0.02160356422393484       684.8135885405924
0.02183306273279162       685.7783684161362
0.02206265161925901       686.7544937250824
0.02229251156070728       687.7419644674304
0.02252282259658549       688.7407806431808
0.022753738766914562      689.4097952488365
0.022984200292012823      690.0774975595749
0.023214388625279938      690.7438875753952
0.023444485866429166      691.408965296298
0.023674674331359946      692.0727307222833
0.023905136119473275      692.7351838533507
0.024136052683548088      693.3963246895005
0.024366274021741702      693.6534362464995
0.024596045148762867      693.9089800237921
0.024825545757885373      694.1629560213777
0.02505495617806012       694.4153642392567
0.02528445695083446       694.6662046774295
0.025514228404773787      694.9154773358952
0.025744450232385536      695.1631822146544
0.025974672267095825      695.041157755124
0.026204443926923768      694.895489101802
0.02643394490485871       694.7261762546887
0.02666335552995085       694.5332192137837
0.026892856344233315      694.3166179790878
0.02712262767714175       694.0763725505999
0.02735284922243193       693.8124829283207
0.027583766528201624      693.1344578674868
0.027814229053652367      692.4453758361298
0.028044418253299775      691.7452368342496
0.02827451622829193       691.0340408618462
0.028504705296278778      690.3117879189199
0.028735167558720572      689.5784780054702
0.028966084470753738      688.8341111214975
0.029196345605491433      687.9177764232787
0.02942615593701711       686.9676980406379
0.02965569538872289       685.983875973575
0.029885144521236064      684.96631022209
0.030114684108324883      683.915000786183
0.030344494710297387      682.8299476658535
0.030574756249911007      681.7111508611023
0.030804511377321087      680.4979385237028
0.031033819010118435      679.2747804776158
0.031262857758987544      678.041676722841
0.03149180686390927       676.7986272593785
0.031720845775323685      675.5456320872287
0.031950153732830305      674.2826912063907
0.032179909346355486      673.0098046168655
0.0324098051544111        671.7517377984242
0.032639252491552244      670.5019366386778
0.03286843029245836       669.2604011376263
0.0330975181233935        668.0271312952699
0.03332669576210278       666.8021271116087
0.03355614277523119       665.585388586642
0.033786038098215655      664.3769157203706
0.034016348759356954      663.2230640598501
0.03424620819605658       662.1067644967386
0.034475796445315066      661.0280170310357
0.03470529418235937       659.9868216627414
0.03493488229610333       658.9831783918563
0.035164741462093585      658.0170872183797
0.03539505171796626       657.088548142312
0.035625967353597694      656.2286334125429
0.03585642834714083       655.429549249342
0.036086616150743635      654.6912956527095
0.03631671286286018       654.0138726226448
0.03654690079812825       653.3972801591489
0.036777362054689705      652.8415182622205
0.03700827808407173       652.3465869318605
0.03723849938140827       651.9098097162805
0.03746827046781093       651.5610998215586
0.03769777103645843       651.3004572476948
0.03792718141620601       651.127881994689
0.0381566821485052        651.0433740625415
0.03838645356182577       651.0469334512516
0.03861667534858004       651.13856016082
0.038846895274787324      651.1323593374773
0.039076664838430766      651.2343796668366
0.03930616372759302       651.4446211488978
0.03953557226638858       651.7630837836608
0.039765070991905134      652.189767571126
0.039994840228642616      652.7246725112929
0.040225059665450036      653.3677986041617
0.04045597761776665       653.896606043348
0.04068644078597457       654.5141426039322
0.04091663062609736       655.2204082859139
0.041146729240799984      656.0154030892936
0.04137691894925231       656.8991270140715
0.04160738185443156       657.8715800602469
0.04183829941298208       658.9327622278203
0.04206856149768976       659.9430559541249
0.04229837277362926       660.9926971192663
0.04252791316640542       662.0816857232436
0.04275736323887129       663.2100217660576
0.04298690376702529       664.3777052477081
0.04321671531340127       665.5847361681948
0.04344697780296935       666.8311145275181
0.043676731016186174      668.1371145773385
0.04390603674591497       669.4523243419694
0.04413507359840861       670.7767438214103
0.04436402080919017       672.1103730156614
0.044593057824233256      673.4532119247233
0.04482236387867965       674.8052605485949
0.045052117578024006      676.166518887277
0.045282012653644836      677.533149451119
0.045511459262636354      678.8818687772463
0.04574063633797325       680.2126768656578
0.04596972344420469       681.5255737163544
0.046198900357357554      682.8205593293361
0.046428346642361965      684.0976337046021
0.04665824123294997       685.3567968421532
0.04688855484177433       686.5270024157792
0.04711841720894409       687.6714356009037
0.04734800837831597       688.7900963975269
0.04757750903201372       689.8829848056487
0.047807100065861544      690.9501008252694
0.04803696216230292       691.9914444563884
0.04826727536583021       693.0070156990063
0.048498193048686675      693.8091776875905
0.048728656077441146      694.5814851037048
0.04895884590902903       695.3239379473488
0.04918894464672031       696.0365362185228
0.04941913460997818       696.7192799172271
0.04964959790176041       697.372169043461
0.04988051597838159       697.995203597225
0.05011073543954296       698.2819543504351
0.0503405047004922        698.5536835554501
0.05057000345013497       698.81039121227
0.05079941201302823       699.0520773208948
0.05102891092631677       699.2787418813249
0.05125868051417213       699.4903848935595
0.051488900464733596      699.6870063575992
