% Model:              brazing.mph
% Version:            COMSOL 5.3.0.223
% Date:               Oct 24 2018, 06:39
% Dimension:          1
% Nodes:              193
% Expressions:        1
% Description:        Line graph
% x                       Height
0                         732.3574454511381
1.6028433640637486E-4     732.4314429050727
3.201839556876346E-4      732.4982551875765
4.7982673004648776E-4     732.5578822986503
6.393411493738095E-4      732.6103242382934
7.988560137323205E-4      732.6555810065062
9.58500122107595E-4       732.6936526032886
0.0011184019611720658     732.7245390286404
0.0012786893978073315     732.7482402825618
0.0014692881782178572     732.7663525815085
0.0016592398034323465     732.769396120126
0.0018487589083489172     732.7573708984141
0.00203806159906999       732.7302769163732
0.0022273647228667317     732.6881141740031
0.0024168851255237504     732.6308826713038
0.002606838908709185      732.5585824082754
0.0027974407000143733     732.4712133849176
0.003000214284638094      732.3504186485501
0.0032022105766743216     732.2164023766455
0.003403687017647933      732.0691645692037
0.0036049030444305387     731.9087052262249
0.0038061191011872996     731.735024347709
0.004007595631967136      731.5481219336559
0.00420959207329518       731.3479979840657
0.00441236586612622       731.1346524989385
0.004615139632985625      730.8993740709825
0.004817136048636202      730.6603005273325
0.005018612553936322      730.4174318679882
0.005219828585313435      730.1707680929494
0.005421044586718146      729.9203092022166
0.0056225210022172924     729.6660551957895
0.005824517268584787      729.408006073668
0.006027290827249049      729.1461618358525
0.006217890949519272      728.8727554410337
0.006407844130704021      728.615891446687
0.0065973647866391935     728.3755698528115
0.00678666880286996       728.151790659408
0.006975972806121895      727.9445538664761
0.007165493423165078      727.7538594740157
0.007355446539677438      727.5797074820272
0.007546046571713631      727.4220978905103
0.00770633524869351       727.3030402240468
0.007866237248851195      727.199468902521
0.008025880956992212      727.1113839259326
0.008185395381580456      727.0387852942821
0.008344909844757132      726.9816730075692
0.008504553668569658      726.9400470657938
0.008664455861201733      726.9139074689562
0.008824744806995652      726.9032542170561
0.008985029143401957      726.90849279914
0.009144928762683142      726.9338276185032
0.009304571537041926      726.9792586751457
0.009464085956369179      727.0447859690673
0.00962360082072762       727.1304095002681
0.009783244929102828      727.2361292687482
0.009943146768167231      727.3619452745074
0.010103434204802428      727.5078575175459
0.010294032985212885      727.6707829832835
0.010483984610427306      727.8519154266751
0.01067350371534381       728.0512548477209
0.010862806406064813      728.2688012464208
0.011052109529861487      728.5045546227748
0.011241629932518437      728.7585149767827
0.011431583715703804      729.0306823084449
0.011622185507008923      729.321056617761
0.011824959091632737      729.6091063713847
0.012026955383669057      729.8899909193316
0.012228431824642762      730.163710261602
0.01242964785142546       730.4302643981954
0.012630863908182311      730.6896533291122
0.012832340438962243      730.9418770543522
0.01303433688029038       731.1869355739155
0.013237110673121513      731.4248288878022
0.013439884439981065      731.6487669189602
0.013641880855631786      731.8549897090335
0.013843357360932049      732.0434972580225
0.014044573392309304      732.2142895659266
0.014245789393714157      732.3673666327462
0.014447265809213447      732.5027284584812
0.014649262075581083      732.6203750431317
0.01485203563424549       732.7203063866976
0.015042635756515686      732.8012499796663
0.015232588937700405      732.8674995008122
0.015422109593635547      732.919054950136
0.015611413609866287      732.9559163276368
0.015800717613118194      732.9780836333152
0.01599023823016135       732.985556867171
0.01618019134667368       732.9783360292043
0.016370791378709844      732.956421119415
0.016531080055689654      732.9146813669487
0.01669098205584727       732.8695955274266
0.016850625763988217      732.8211636008492
0.017010140188576394      732.7693855872163
0.017169654651752998      732.714261486528
0.017329298475565455      732.655791298784
0.017489200668197463      732.5939750239847
0.01764948961399131       732.5288126621299
0.01780977395039525       732.4377258022804
0.017969673569674088      732.3362619755939
0.018129316344030533      732.2244211820706
0.01828883076335545       732.1022034217107
0.01844834562771156       731.9696086945138
0.01860798973608443       731.8266370004801
0.018767891575146484      731.6732883396096
0.018928179011779317      731.5095627119023
0.019118777792188433      731.2570595809837
0.019308729417401523      730.9847162704108
0.019498248522316707      730.6925327801835
0.019687551213036395      730.3805091103021
0.019876854336831753      730.0486452607664
0.02006637473948738       729.6969412315766
0.020256328522671414      729.3253970227323
0.020446930313975188      728.9340126342339
0.02064970389860279       728.4739651136019
0.02085170019064286       728.0022319260405
0.02105317663162028       727.518813071549
0.02125439265840668       727.0237085501276
0.021455608715167235      726.5169183617763
0.02165708524595088       725.9984425064953
0.021859081687282764      725.4682809842844
0.02206185548011769       724.9264337951437
0.022264629246980954      724.3968502415028
0.022466625662635346      723.8777429714148
0.022668102167939252      723.3691119848802
0.022869318199320136      722.8709572818983
0.023070534200728618      722.3832788624695
0.023272010616231548      721.9060767265938
0.023474006882602858      721.4393508742711
0.02367678044127098       720.9831013055013
0.02386738056353977       720.5430346306165
0.024057333744723106      720.1339800778585
0.02424685440065687       719.7559376472274
0.024436158416886237      719.4089073387228
0.02462546242013677       719.092889152345
0.024814983037178547      718.8078830880941
0.025004936153689494      718.55388914597
0.025195536185724256      718.3309073259725
0.0253558248627017        718.1357653605402
0.025515726862856965      717.9672321870682
0.025675370570995573      717.8253078055569
0.02583488499558142       717.7099922160058
0.02599439945875569       717.6212854184153
0.02615404328256581       717.5591874127853
0.026313945475195465      717.5236981991158
0.026474234420986946      717.5148177774066
0.026634518757392422      717.5261653839972
0.02679441837667279       717.5606690466135
0.026954061151030752      717.6183287652549
0.02711357557035719       717.6991445399218
0.027273090434714816      717.8031163706141
0.027432734543089202      717.9302442573317
0.027592636382152785      718.0805282000747
0.02775292381878715       718.253968198843
0.02794352259919713       718.4657109640226
0.02813347422441108       718.7069130073847
0.028322993329327112      718.9775743289289
0.028512296020047647      719.2776949286557
0.02870159914384385       719.6072748065648
0.028891119546500334      719.9663139626562
0.02908107332968523       720.35481239693
0.029271675120989875      720.7727701093861
0.02947444870561504       721.2352609521372
0.029676444997652693      721.7067347657303
0.02987792143862772       722.1871915501649
0.030079137465411736      722.6766313054417
0.030280353522169904      723.1750540315602
0.030481830052951155      723.6824597285206
0.030683826494280624      724.1988483963229
0.030886600287113104      724.724220034967
0.03108937405397396       725.2452067539822
0.03129137046962597       725.7613973157277
0.03149284697492751       726.2727917202038
0.03169406300630604       726.7793899674103
0.03189527900771217       727.2811920573473
0.03209675542321274       727.7781979900147
0.03229875168958166       728.2704077654126
0.03250152524824737       728.7578213835409
0.03269212537051706       729.1475508447165
0.03288207855170127       729.5161021498769
0.033071599207635916      729.8634752990222
0.033260903223866156      730.1896702921524
0.033450207227117564      730.4946871292674
0.033639727844160215      730.7785258103671
0.03382968096067204       731.0411863354517
0.034020280992707694      731.282668704521
0.034180569669686675      731.4577392238398
0.03434047166984347       731.6211744785893
0.0345001153779836        731.7729744687701
0.03465962980257096       731.9131391943816
0.03481914426574675       732.0416686554242
0.034978788089558385      732.1585628518978
0.03513869028218957       732.2638217838025
0.035298979227982585      732.3574454511381
