% Model:              brazing.mph
% Version:            COMSOL 5.3.0.223
% Date:               Oct 24 2018, 02:22
% Dimension:          1
% Nodes:              193
% Expressions:        1
% Description:        Line graph
% x                       Height
0                         686.3371104528093
1.6028433640637486E-4     686.4071271748979
3.201839556876346E-4      686.4700760255822
4.7982673004648776E-4     686.5259570048626
6.393411493738095E-4      686.5747701127385
7.988560137323205E-4      686.6165153492104
9.58500122107595E-4       686.651192714278
0.0011184019611720658     686.6788022079414
0.0012786893978073315     686.6993438302007
0.0014692881782178572     686.7109553127938
0.0016592398034323465     686.7044304558702
0.0018487589083489172     686.6797692594301
0.00203806159906999       686.6369717234732
0.0022273647228667317     686.5760378479997
0.0024168851255237504     686.4969676330096
0.002606838908709185      686.3997610785028
0.0027974407000143733     686.2844181844795
0.003000214284638094      686.1413049086372
0.0032022105766743216     685.9823404980704
0.003403687017647933      685.8075249527798
0.0036049030444305387     685.616858272765
0.0038061191011872996     685.410340458026
0.004007595631967136      685.1879715085629
0.00420959207329518       684.9497514243756
0.00441236586612622       684.6956802054642
0.004615139632985625      684.4086399346377
0.004817136048636202      684.117534561704
0.005018612553936322      683.8223640866636
0.005219828585313435      683.5231285095159
0.005421044586718146      683.2198278302612
0.0056225210022172924     682.9124620488994
0.005824517268584787      682.6010311654305
0.006027290827249049      682.2855351798546
0.006217890949519272      681.9577439653068
0.006407844130704021      681.6504103392103
0.0065973647866391935     681.3635343015643
0.00678666880286996       681.0971158523695
0.006975972806121895      680.8511549916254
0.007165493423165078      680.6256517193324
0.007355446539677438      680.4206060354902
0.007546046571713631      680.2360179400989
0.00770633524869351       680.0996552478506
0.007866237248851195      679.9820414171784
0.008025880956992212      679.8831764480825
0.008185395381580456      679.8030603405629
0.008344909844757132      679.7416930946194
0.008504553668569658      679.6990747102523
0.008664455861201733      679.6752051874614
0.008824744806995652      679.6700845262467
0.008985029143401957      679.6874077175988
0.009144928762683142      679.7287931497332
0.009304571537041926      679.7942408226501
0.009464085956369179      679.8837507363492
0.00962360082072762       679.9973228908308
0.009783244929102828      680.1349572860948
0.009943146768167231      680.2966539221412
0.010103434204802428      680.48241279897
0.010294032985212885      680.6924578588894
0.010483984610427306      680.9247324704767
0.01067350371534381       681.1792366337322
0.010862806406064813      681.4559703486558
0.011052109529861487      681.7549336152474
0.011241629932518437      682.076126433507
0.011431583715703804      682.4195488034349
0.011622185507008923      682.7852007250306
0.011824959091632737      683.1510309078634
0.012026955383669057      683.5081483412138
0.012228431824642762      683.8565530250811
0.01242964785142546       684.1962449594657
0.012630863908182311      684.5272241443676
0.012832340438962243      684.8494905797867
0.01303433688029038       685.1630442657228
0.013237110673121513      685.4678852021763
0.013439884439981065      685.7496876856014
0.013641880855631786      686.0100503172754
0.013843357360932049      686.2489730971984
0.014044573392309304      686.46645602537
0.014245789393714157      686.6624991017907
0.014447265809213447      686.8371023264602
0.014649262075581083      686.9902656993786
0.01485203563424549       687.1219892205459
0.015042635756515686      687.2357204674777
0.015232588937700405      687.3315543720848
0.015422109593635547      687.4094909343669
0.015611413609866287      687.4695301543245
0.015800717613118194      687.5116720319571
0.01599023823016135       687.535916567265
0.01618019134667368       687.542263760248
0.016370791378709844      687.5307136109062
0.016531080055689654      687.4930026839951
0.01669098205584727       687.4527842263855
0.016850625763988217      687.4100582380776
0.017010140188576394      687.3648247190714
0.017169654651752998      687.317083669367
0.017329298475565455      687.2668350889642
0.017489200668197463      687.2140789778632
0.01764948961399131       687.1588153360638
0.01780977395039525       687.065814020142
0.017969673569674088      686.9607461809487
0.018129316344030533      686.8436118184844
0.01828883076335545       686.7144109327485
0.01844834562771156       686.5731435237412
0.01860798973608443       686.4198095914627
0.018767891575146484      686.2544091359127
0.018928179011779317      686.0769421570915
0.019118777792188433      685.7907679779465
0.019308729417401523      685.4799601610425
0.019498248522316707      685.144518706379
0.019687551213036395      684.7844436139563
0.019876854336831753      684.3997348837744
0.02006637473948738       683.990392515833
0.020256328522671414      683.5564165101325
0.020446930313975188      683.0978068666727
0.02064970389860279       682.5581785315945
0.02085170019064286       682.0043298278403
0.02105317663162028       681.43626075541
0.02125439265840668       680.8539713143039
0.021455608715167235      680.2574615045218
0.02165708524595088       679.6467313260637
0.021859081687282764      679.0217807789297
0.02206185548011769       678.3826098631198
0.022264629246980954      677.7537658676036
0.022466625662635346      677.1366079040821
0.022668102167939252      676.531135972555
0.022869318199320136      675.9373500730223
0.023070534200728618      675.3552502054841
0.023272010616231548      674.7848363699404
0.023474006882602858      674.2261085663913
0.02367678044127098       673.6790667948366
0.02386738056353977       673.1526779981857
0.024057333744723106      672.662613762817
0.02424685440065687       672.2088740887305
0.024436158416886237      671.7914589759263
0.02462546242013677       671.4103684244043
0.024814983037178547      671.0656024341645
0.025004936153689494      670.757161005207
0.025195536185724256      670.4850441375316
0.0253558248627017        670.2486728033516
0.025515726862856965      670.0430929745368
0.025675370570995573      669.8683046510869
0.02583488499558142       669.7243078330018
0.02599439945875569       669.6111025202819
0.02615404328256581       669.5286887129271
0.026313945475195465      669.4770664109371
0.026474234420986946      669.4562356143124
0.026634518757392422      669.4626163096755
0.02679441837667279       669.4955557819585
0.026954061151030752      669.5550540311615
0.02711357557035719       669.6411110572843
0.027273090434714816      669.7537268603271
0.027432734543089202      669.8929014402896
0.027592636382152785      670.0586347971722
0.02775292381878715       670.2509269309746
0.02794352259919713       670.4912521254297
0.02813347422441108       670.7663830451523
0.028322993329327112      671.0763196901427
0.028512296020047647      671.4210620604006
0.02870159914384385       671.8006101559262
0.028891119546500334      672.2149639767194
0.02908107332968523       672.6641235227803
0.029271675120989875      673.1480887941088
0.02947444870561504       673.685590554569
0.029676444997652693      674.2333633099387
0.02987792143862772       674.7914070602178
0.030079137465411736      675.3597218054065
0.030280353522169904      675.9383075455047
0.030481830052951155      676.5271642805125
0.030683826494280624      677.1262920104297
0.030886600287113104      677.7356907352565
0.03108937405397396       678.3343801664829
0.03129137046962597       678.9262606281943
0.03149284697492751       679.5113321203909
0.03169406300630604       680.0895946430722
0.03189527900771217       680.6610481962388
0.03209675542321274       681.2256927798902
0.03229875168958166       681.7835283940268
0.03250152524824737       682.3345550386483
0.03269212537051706       682.7856494980077
0.03288207855170127       683.2100873567933
0.033071599207635916      683.607868615005
0.033260903223866156      683.9789932726429
0.033450207227117564      684.3234613297069
0.033639727844160215      684.641272786197
0.03382968096067204       684.9324276421131
0.034020280992707694      685.1969258974555
0.034180569669686675      685.3841094997698
0.03434047166984347       685.5585329498281
0.0345001153779836        685.720196247631
0.03465962980257096       685.869099393178
0.03481914426574675       686.0052423864694
0.034978788089558385      686.128625227505
0.03513869028218957       686.239247916285
0.035298979227982585      686.3371104528093
