% Model:              brazing.mph
% Version:            COMSOL 5.3.0.223
% Date:               Oct 24 2018, 06:45
% Dimension:          1
% Nodes:              225
% Expressions:        1
% Description:        Line graph
% x                       Height
0                         704.1852417009627
2.3022181212578358E-4     704.0355423893487
4.5999325066962656E-4     703.8562565584314
6.894940081029028E-4      703.6473842082106
9.189044129547812E-4      703.4089253386865
0.001148405006736289      703.1408799498595
0.0013781761183620641     702.8432480417285
0.001608397441069865      702.5160296142947
0.001839314118928521      701.781790719975
0.0020697760201574002     701.0493331002342
0.002299964597801726      700.318656755072
0.0025300619515304015     699.5897616844886
0.0027602503975112853     698.8626478884844
0.0029907120357255193     698.1373153670587
0.003221628319839081      697.4137641202119
0.0034518885683530987     696.4701152129929
0.0036816980188178403     695.5158697947693
0.003911236592567028      694.5510278655406
0.004140684848157368      693.5755894253072
0.004370223557282477      692.589554474069
0.004600033278179856      691.5929230118256
0.004830293931548535      690.5856950385776
0.005060048526376791      689.3910008150596
0.005289355629682316      688.2080264676446
0.005518393850920054      687.0367719963327
0.005747342428834         685.8772374011241
0.00597638081262499       684.7294226820192
0.006205688240655705      683.593327839017
0.006435443321622868      682.4689528721183
0.006665339619110656      681.2642527644135
0.006894787442849326      680.0803554964394
0.007123965728649401      678.9172610681962
0.007353054043912613      677.7749694796839
0.007582232167524012      676.6534807309027
0.007811679667266285      675.5527948218521
0.008041575479707366      674.4729117525325
0.008271887219609135      673.3878239707685
0.008501747728772392      672.3403001522689
0.008731337046705121      671.3303402970338
0.008960835851156599      670.3579444050632
0.009190425033567954      669.4231124763573
0.009420285272008154      668.5258445109157
0.009650596606620833      667.6661405087387
0.009881512912836019      666.8369031496705
0.010111974573021956      666.0601107240984
0.010342163040896366      665.3357632320217
0.010572260416492441      664.6638606734408
0.010802449016030204      664.044403048356
0.011032910939230619      663.4773903567666
0.011263827639190652      662.9628225986731
0.011494048967061755      662.4742570766316
0.011723820083820682      662.0658874037471
0.011953320682717213      661.7377135800193
0.012182731092678062      661.4897356054483
0.012412231855226382      661.3219534800347
0.012642003298903411      661.2343672037777
0.012872225116192546      661.2269767766776
0.013102446994778118      661.0655030149971
0.013332218499393473      661.0063769941574
0.01356171932266464       661.0495987141583
0.013791129793276359      661.1951681749996
0.01402063045289555       661.4430853766819
0.014250401630592404      661.7933503192044
0.014480623019759359      662.2459630025677
0.014711539835704642      662.5224260313591
0.014942001874208778      662.8861163943849
0.015172190588640395      663.337034091644
0.01540228807899374       663.8751791231371
0.015632476661762654      664.5005514888644
0.015862938437253588      665.2131511888251
0.01609385485945594       666.0129782230199
0.016324115336228646      666.7259637129908
0.016553925013622208      667.4807220324317
0.016783463813500554      668.2772531813424
0.017012912294953733      669.1155571597232
0.01724245123020976       669.9956339675741
0.01747226117803945       670.9174836048946
0.017702522059672054      671.8811060716854
0.017932276794613372      672.8498271782231
0.018161584037218948      673.8455521691865
0.018390622397267263      674.8682810445754
0.018619571113827754      675.9180138043896
0.018848609636427344      676.9947504486296
0.019077917203754128      678.0984909772947
0.019307672424828403      679.2292353903855
0.019537568573699274      680.2662003376267
0.01976701624968263       681.3183113709119
0.019996194388245302      682.3855684902406
0.020225282556443316      683.4679716956132
0.020454460532815345      684.5655209870297
0.02068390788479834       685.6782163644896
0.020913803548616574      686.8060578279934
0.02114411498977932       687.7210903834967
0.021373975201947604      688.6479483619789
0.02160356422393484       689.5866317634393
0.02183306273279162       690.5371405878783
0.02206265161925901       691.4994748352962
0.02229251156070728       692.4736345056922
0.02252282259658549       693.459619599067
0.022753738766914562      694.114484285528
0.022984200292012823      694.7688278876486
0.023214388625279938      695.4226504054288
0.023444485866429166      696.0759518388686
0.023674674331359946      696.7287321879684
0.023905136119473275      697.3809914527275
0.024136052683548088      698.0327296331463
0.024366274021741702      698.2778146040238
0.024596045148762867      698.5224719834054
0.024825545757885373      698.766701771291
0.02505495617806012       699.0105039676808
0.02528445695083446       699.2538785725751
0.025514228404773787      699.4968255859729
0.025744450232385536      699.7393450078753
0.025974672267095825      699.608005484455
0.026204443926923768      699.4542054027891
0.02643394490485871       699.2779447628776
0.02666335552995085       699.0792235647205
0.026892856344233315      698.858041808318
0.02712262767714175       698.6143994936696
0.02735284922243193       698.3482966207758
0.027583766528201624      697.6673118513429
0.027814229053652367      696.9766660870863
0.028044418253299775      696.2763593280059
0.02827451622829193       695.5663915741017
0.028504705296278778      694.8467628253741
0.028735167558720572      694.1174730818221
0.028966084470753738      693.3785223434468
0.029196345605491433      692.4680351072518
0.02942615593701711       691.5246541523468
0.02965569538872289       690.5483794787318
0.029885144521236064      689.5392110864071
0.030114684108324883      688.4971489753727
0.030344494710297387      687.4221931456282
0.030574756249911007      686.3143435971739
0.030804511377321087      685.1132609782999
0.031033819010118435      683.902754666999
0.031262857758987544      682.6828246632712
0.03149180686390927       681.4534709671165
0.031720845775323685      680.2146935785349
0.031950153732830305      678.9664924975261
0.032179909346355486      677.7088677240906
0.0324098051544111        676.4664638997564
0.032639252491552244      675.2324296316513
0.03286843029245836       674.0067649197754
0.0330975181233935        672.7894697641289
0.03332669576210278       671.5805441647119
0.03355614277523119       670.3799881215239
0.033786038098215655      669.1878016345653
0.034016348759356954      668.0504406959034
0.03424620819605658       666.9501158676388
0.034475796445315066      665.8868271497713
0.03470529418235937       664.8605745423009
0.03493488229610333       663.8713580452282
0.035164741462093585      662.9191776585523
0.03539505171796626       662.0040333822739
0.035625967353597694      661.1570123559046
0.03585642834714083       660.369904048479
0.036086616150743635      659.6427084599969
0.03631671286286018       658.9754255904581
0.03654690079812825       658.368055439863
0.036777362054689705      657.820598008211
0.03700827808407173       657.3330532955027
0.03723849938140827       656.9026416402893
0.03746827046781093       656.5592712362728
0.03769777103645843       656.3029420834531
0.03792718141620601       656.13365418183
0.0381566821485052        656.0514075314042
0.03838645356182577       656.0562021321747
0.03861667534858004       656.1480379841423
0.038846895274787324      656.1397991120189
0.039076664838430766      656.2389072378661
0.03930616372759302       656.4453623616836
0.03953557226638858       656.7591644834716
0.039765070991905134      657.1803136032305
0.039994840228642616      657.7088097209594
0.040225059665450036      658.3446528366592
0.04045597761776665       658.8633338475947
0.04068644078597457       659.4701804356187
0.04091663062609736       660.1651926007308
0.041146729240799984      660.9483703429314
0.04137691894925231       661.8197136622206
0.04160738185443156       662.7792225585978
0.04183829941298208       663.8268970320635
0.04206856149768976       664.8218577315492
0.04229837277362926       665.8557546005745
0.04252791316640542       666.928587639139
0.04275736323887129       668.0403568472428
0.04298690376702529       669.1910622248864
0.04321671531340127       670.3807037720688
0.04344697780296935       671.6092814887909
0.043676731016186174      672.8973507143776
0.04390603674591497       674.1946921485525
0.04413507359840861       675.5013057913151
0.04436402080919017       676.817191642666
0.044593057824233256      678.1423497026052
0.04482236387867965       679.476779971132
0.045052117578024006      680.8204824482472
0.045282012653644836      682.1703538990264
0.045511459262636354      683.50294899204
0.04574063633797325       684.8182677272877
0.04596972344420469       686.1163101047697
0.046198900357357554      687.3970761244865
0.046428346642361965      688.660565786437
0.04665824123294997       689.9067790906221
0.04688855484177433       691.0648149885627
0.04711841720894409       692.1980050551632
0.04734800837831597       693.306349290423
0.04757750903201372       694.3898476943426
0.047807100065861544      695.4485002669221
0.04803696216230292       696.4823070081608
0.04826727536583021       697.4912679180594
0.048498193048686675      698.2870412044718
0.048728656077441146      699.0542668263431
0.04895884590902903       699.7929447836734
0.04918894464672031       700.5030750764626
0.04941913460997818       701.184657704711
0.04964959790176041       701.8376926684178
0.04988051597838159       702.4621799675839
0.05011073543954296       702.7499388289343
0.0503405047004922        703.023828628567
0.05057000345013497       703.2838493664818
0.05079941201302823       703.5300010426786
0.05102891092631677       703.762283657158
0.05125868051417213       703.9806972099192
0.051488900464733596      704.1852417009627
