% Model:              brazing.mph
% Version:            COMSOL 5.3.0.223
% Date:               Oct 24 2018, 04:41
% Dimension:          1
% Nodes:              225
% Expressions:        1
% Description:        Line graph
% x                       Height
0                         678.5649604099607
2.3022181212578358E-4     678.435062796484
4.5999325066962656E-4     678.2839762866141
6.894940081029028E-4      678.111700880351
9.189044129547812E-4      677.9182365776948
0.001148405006736289      677.7035833786455
0.0013781761183620641     677.4677412832027
0.001608397441069865      677.2107102913669
0.001839314118928521      676.5444939347977
0.0020697760201574002     675.8876512447848
0.002299964597801726      675.2401822213283
0.0025300619515304015     674.6020868644282
0.0027602503975112853     673.9733651740847
0.0029907120357255193     673.3540171502973
0.003221628319839081      672.7440427930665
0.0034518885683530987     671.9118534138992
0.0036816980188178403     671.0733092661538
0.003911236592567028      670.2284103498304
0.004140684848157368      669.3771566649285
0.004370223557282477      668.5195482114488
0.004600033278179856      667.6555849893906
0.004830293931548535      666.7852669987543
0.005060048526376791      665.7298480037616
0.005289355629682316      664.6884707933277
0.005518393850920054      663.6611353674523
0.005747342428834         662.6478417261355
0.00597638081262499       661.6485898693778
0.006205688240655705      660.6633797971785
0.006435443321622868      659.692211509538
0.006665339619110656      658.6386693865
0.006894787442849326      657.6056347203622
0.007123965728649401      656.5931075111237
0.007353054043912613      655.601087758785
0.007582232167524012      654.6295754633462
0.007811679667266285      653.6785706248068
0.008041575479707366      652.7480732431673
0.008271887219609135      651.8086297563674
0.008501747728772392      650.9031946670109
0.008731337046705121      650.0317679750978
0.008960835851156599      649.1943496806281
0.009190425033567954      648.3909397836021
0.009420285272008154      647.621538284019
0.009650596606620833      646.8861451818797
0.009881512912836019      646.1753931390676
0.010111974573021956      645.510902926279
0.010342163040896366      644.8926745435139
0.010572260416492441      644.3207079907721
0.010802449016030204      643.7950032680543
0.011032910939230619      643.3155603753596
0.011263827639190652      642.8823793126886
0.011494048967061755      642.4675511700607
0.011723820083820682      642.1251480777396
0.011953320682717213      641.855170035725
0.012182731092678062      641.6576170440171
0.012412231855226382      641.5324891026162
0.012642003298903411      641.4797862115216
0.012872225116192546      641.4995083707339
0.013102446994778118      641.358714955551
0.013332218499393473      641.3122616286516
0.01356171932266464       641.3601483900355
0.013791129793276359      641.5023752397029
0.01402063045289555       641.7389421776539
0.014250401630592404      642.0698492038881
0.014480623019759359      642.4950963184059
0.014711539835704642      642.7348924141148
0.014942001874208778      643.0561289794817
0.015172190588640395      643.4588060145064
0.01540228807899374       643.9429235191892
0.015632476661762654      644.5084814935303
0.015862938437253588      645.1554799375289
0.01609385485945594       645.8839188511857
0.016324115336228646      646.5160969995021
0.016553925013622208      647.1862454437759
0.016783463813500554      647.8943641840065
0.017012912294953733      648.6404532201944
0.01724245123020976       649.4245125523398
0.01747226117803945       650.246542180442
0.017702522059672054      651.1065421045016
0.017932276794613372      651.9656668002496
0.018161584037218948      652.8508485901654
0.018390622397267263      653.7620874742486
0.018619571113827754      654.6993834524995
0.018848609636427344      655.6627365249184
0.019077917203754128      656.6521466915044
0.019307672424828403      657.6676139522583
0.019537568573699274      658.5874341401206
0.01976701624968263       659.5239998205514
0.019996194388245302      660.4773109935502
0.020225282556443316      661.4473676591174
0.020454460532815345      662.434169817253
0.02068390788479834       663.4377174679564
0.020913803548616574      664.4580106112284
0.02114411498977932       665.2630173136098
0.021373975201947604      666.0831104866304
0.02160356422393484       666.9182901302903
0.02183306273279162       667.768556244589
0.02206265161925901       668.6339088295272
0.02229251156070728       669.514347885104
0.02252282259658549       670.4098734113203
0.022753738766914562      670.9701001828944
0.022984200292012823      671.5356447510853
0.023214388625279938      672.1065071158931
0.023444485866429166      672.682687277318
0.023674674331359946      673.26418523536
0.023905136119473275      673.8510009900184
0.024136052683548088      674.4431345412942
0.024366274021741702      674.62039580724
0.024596045148762867      674.8049507935451
0.024825545757885373      674.996799500209
0.02505495617806012       675.195941927232
0.02528445695083446       675.4023780746139
0.025514228404773787      675.6161079423546
0.025744450232385536      675.8371315304544
0.025974672267095825      675.6699300118788
0.026204443926923768      675.487905947006
0.02643394490485871       675.291059335836
0.02666335552995085       675.079390178369
0.026892856344233315      674.852898474605
0.02712262767714175       674.6115842245435
0.02735284922243193       674.3554474281852
0.027583766528201624      673.6896119785628
0.027814229053652367      673.0222967778865
0.028044418253299775      672.3535018261566
0.02827451622829193       671.6832271233733
0.028504705296278778      671.0114726695366
0.028735167558720572      670.3382384646461
0.028966084470753738      669.6635245087023
0.029196345605491433      668.822171718946
0.02942615593701711       667.9534038972696
0.02965569538872289       667.0572210436728
0.029885144521236064      666.1336231581558
0.030114684108324883      665.1826102407189
0.030344494710297387      664.2041822913613
0.030574756249911007      663.1983393100838
0.030804511377321087      662.1052589230441
0.031033819010118435      661.0056651178313
0.031262857758987544      659.8995578944453
0.03149180686390927       658.7869372528861
0.031720845775323685      657.667803193154
0.031950153732830305      656.5421557152483
0.032179909346355486      655.4099948191698
0.0324098051544111        654.2928005403998
0.032639252491552244      653.183704645967
0.03286843029245836       652.0827071358716
0.0330975181233935        650.9898080101136
0.03332669576210278       649.9050072686932
0.03355614277523119       648.82830491161
0.033786038098215655      647.7597009388643
0.034016348759356954      646.7439486433373
0.03424620819605658       645.7606622297171
0.034475796445315066      644.8098416980037
0.03470529418235937       643.891487048197
0.03493488229610333       643.0055982802975
0.035164741462093585      642.1521753943044
0.03539505171796626       641.3312183902183
0.035625967353597694      640.5730250560212
0.03585642834714083       639.867150796713
0.036086616150743635      639.2135956122935
0.03631671286286018       638.6123595027631
0.03654690079812825       638.0634424681219
0.036777362054689705      637.5668445083693
0.03700827808407173       637.1225656235059
0.03723849938140827       636.7274061276644
0.03746827046781093       636.4106069866372
0.03769777103645843       636.1721682004245
0.03792718141620601       636.0120897690263
0.0381566821485052        635.9303716924428
0.03838645356182577       635.9270139706736
0.03861667534858004       636.002016603719
0.038846895274787324      635.9648379296121
0.039076664838430766      636.0269217635532
0.03930616372759302       636.188268105542
0.03953557226638858       636.4488769555786
0.039765070991905134      636.8087483136634
0.039994840228642616      637.2678821797956
0.040225059665450036      637.8262785539757
0.04045597761776665       638.251739806252
0.04068644078597457       638.7597270052489
0.04091663062609736       639.3502401509667
0.041146729240799984      640.023279243405
0.04137691894925231       640.7788442825646
0.04160738185443156       641.6169352684443
0.04183829941298208       642.5375522010452
0.04206856149768976       643.3947247615031
0.04229837277362926       644.2872180990971
0.04252791316640542       645.2150322138266
0.04275736323887129       646.1781671056922
0.04298690376702529       647.176622774694
0.04321671531340127       648.2103992208313
0.04344697780296935       649.2794964441047
0.043676731016186174      650.4057673757894
0.04390603674591497       651.5412383920756
0.04413507359840861       652.6859094929628
0.04436402080919017       653.8397806784512
0.044593057824233256      655.0028519485414
0.04482236387867965       656.1751233032326
0.045052117578024006      657.3565947425252
0.045282012653644836      658.547423704847
0.045511459262636354      659.7252615284311
0.04574063633797325       660.8901082132775
0.04596972344420469       662.0419637593862
0.046198900357357554      663.1808281667577
0.046428346642361965      664.3067014353913
0.04665824123294997       665.4195835652874
0.04688855484177433       666.4490906312318
0.04711841720894409       667.4604755488688
0.04734800837831597       668.4537383181982
0.04757750903201372       669.4288789392206
0.047807100065861544      670.3858974119357
0.04803696216230292       671.3247937363432
0.04826727536583021       672.2455679124436
0.048498193048686675      672.956640360283
0.048728656077441146      673.6486612943544
0.04895884590902903       674.3216307146575
0.04918894464672031       674.9755486211927
0.04941913460997818       675.6104150139602
0.04964959790176041       676.226229892959
0.04988051597838159       676.8229932581902
0.05011073543954296       677.085696117257
0.0503405047004922        677.343782173386
0.05057000345013497       677.5972514265767
0.05079941201302823       677.8461038768296
0.05102891092631677       678.0903395241448
0.05125868051417213       678.3299583685216
0.051488900464733596      678.5649604099607
