% Model:              brazing.mph
% Version:            COMSOL 5.3.0.223
% Date:               Oct 24 2018, 03:00
% Dimension:          1
% Nodes:              225
% Expressions:        1
% Description:        Line graph
% x                       Height
0                         706.1005051427983
2.3022181212578358E-4     705.9385640776434
4.5999325066962656E-4     705.7458154371341
6.894940081029028E-4      705.5222592212701
9.189044129547812E-4      705.2678954300518
0.001148405006736289      704.982724063479
0.0013781761183620641     704.6667451215515
0.001608397441069865      704.3199586042695
0.001839314118928521      703.557888786976
0.0020697760201574002     702.7962955468705
0.002299964597801726      702.035178883953
0.0025300619515304015     701.2745387982235
0.0027602503975112853     700.5143752896823
0.0029907120357255193     699.7546883583288
0.003221628319839081      698.9954780041637
0.0034518885683530987     698.0126706938944
0.0036816980188178403     697.0175732791968
0.003911236592567028      696.0101857600705
0.004140684848157368      694.9905081365159
0.004370223557282477      693.958540408533
0.004600033278179856      692.9142825761213
0.004830293931548535      691.8577346392814
0.005060048526376791      690.6145982111036
0.005289355629682316      689.3822844009351
0.005518393850920054      688.1607932087762
0.005747342428834         686.950124634627
0.00597638081262499       685.7502786784875
0.006205688240655705      684.5612553403571
0.006435443321622868      683.3830546202365
0.006665339619110656      682.1266122501613
0.006894787442849326      680.8907555766172
0.007123965728649401      679.6754845996044
0.007353054043912613      678.4807993191228
0.007582232167524012      677.3066997351725
0.007811679667266285      676.1531858477532
0.008041575479707366      675.0202576568653
0.008271887219609135      673.8846741330225
0.008501747728772392      672.7876518657107
0.008731337046705121      671.7291908549295
0.008960835851156599      670.7092911006793
0.009190425033567954      669.72795260296
0.009420285272008154      668.7851753617714
0.009650596606620833      667.8809593771139
0.009881512912836019      667.0100163897762
0.010111974573021956      666.1934450883366
0.010342163040896366      665.4312454727949
0.010572260416492441      664.7234175431513
0.010802449016030204      664.0699612994061
0.011032910939230619      663.4708767415586
0.011263827639190652      662.9261638696095
0.011494048967061755      662.4102391458943
0.011723820083820682      661.9773675171728
0.011953320682717213      661.6275489834443
0.012182731092678062      661.3607835447094
0.012412231855226382      661.177071200968
0.012642003298903411      661.0764119522198
0.012872225116192546      661.0588057984651
0.013102446994778118      660.8853250580556
0.013332218499393473      660.8176094809324
0.01356171932266464       660.8556590670952
0.013791129793276359      660.999473816544
0.01402063045289555       661.2490537292791
0.014250401630592404      661.6043988053
0.014480623019759359      662.0655090446071
0.014711539835704642      662.3496445764854
0.014942001874208778      662.7235846706373
0.015172190588640395      663.1873293270622
0.01540228807899374       663.7408785457608
0.015632476661762654      664.384232326733
0.015862938437253588      665.1173906699784
0.01609385485945594       665.9403535754974
0.016324115336228646      666.677938908872
0.016553925013622208      667.4584879553054
0.016783463813500554      668.2820007147978
0.017012912294953733      669.1484771873496
0.01724245123020976       670.0579173729608
0.01747226117803945       671.0103212716308
0.017702522059672054      672.0056888833601
0.017932276794613372      673.0094671633744
0.018161584037218948      674.0405166222696
0.018390622397267263      675.0988372600457
0.018619571113827754      676.1844290767027
0.018848609636427344      677.297292072241
0.019077917203754128      678.4374262466599
0.019307672424828403      679.6048315999599
0.019537568573699274      680.6808885326236
0.01976701624968263       681.7714077430712
0.019996194388245302      682.8763892313021
0.020225282556443316      683.9958329973167
0.020454460532815345      685.1297390411153
0.02068390788479834       686.2781073626969
0.020913803548616574      687.4409379620625
0.02114411498977932       688.3927453593573
0.021373975201947604      689.3552228836919
0.02160356422393484       690.3283705350665
0.02183306273279162       691.3121883134809
0.02206265161925901       692.3066762189355
0.02229251156070728       693.3118342514297
0.02252282259658549       694.327662410964
0.022753738766914562      695.0136565515814
0.022984200292012823      695.6972819328062
0.023214388625279938      696.3785385546382
0.023444485866429166      697.0574264170774
0.023674674331359946      697.7339455201243
0.023905136119473275      698.4080958637778
0.024136052683548088      699.0798774480389
0.024366274021741702      699.3461833635166
0.024596045148762867      699.6103911905724
0.024825545757885373      699.872500929206
0.02505495617806012       700.1325125794174
0.02528445695083446       700.3904261412072
0.025514228404773787      700.6462416145745
0.025744450232385536      700.89995899952
0.025974672267095825      700.7732613337787
0.026204443926923768      700.6233155014041
0.02643394490485871       700.450121502396
0.02666335552995085       700.2536793367544
0.026892856344233315      700.0339890044798
0.02712262767714175       699.7910505055715
0.02735284922243193       699.52486384003
0.027583766528201624      698.8332210954537
0.027814229053652367      698.1307033731833
0.028044418253299775      697.4173106732189
0.02827451622829193       696.6930429955606
0.028504705296278778      695.9579003402088
0.028735167558720572      695.2118827071625
0.028966084470753738      694.4549900964225
0.029196345605491433      693.520029577517
0.02942615593701711       692.5504956102549
0.02965569538872289       691.5463881946359
0.029885144521236064      690.5077073306603
0.030114684108324883      689.4344530183283
0.030344494710297387      688.3266252576394
0.030574756249911007      687.1842240485939
0.030804511377321087      685.9480145622354
0.031033819010118435      684.7013524291091
0.031262857758987544      683.4442376492149
0.03149180686390927       682.1766702225528
0.031720845775323685      680.8986501491233
0.031950153732830305      679.6101774289256
0.032179909346355486      678.3112520619603
0.0324098051544111        677.0294227624147
0.032639252491552244      675.7558243911794
0.03286843029245836       674.4904569482545
0.0330975181233935        673.2333204336401
0.03332669576210278       671.9844148473363
0.03355614277523119       670.7437401893427
0.033786038098215655      669.5112964596595
0.034016348759356954      668.3360184476031
0.03424620819605658       667.1991517077164
0.034475796445315066      666.1006962399989
0.03470529418235937       665.040652044451
0.03493488229610333       664.0190191210728
0.035164741462093585      663.0357974698638
0.03539505171796626       662.0909870908246
0.035625967353597694      661.2171173799256
0.03585642834714083       660.4055932153703
0.036086616150743635      659.6564145971589
0.03631671286286018       658.9695815252911
0.03654690079812825       658.3450939997675
0.036777362054689705      657.7829520205873
0.03700827808407173       657.283155587751
0.03723849938140827       656.8435248156766
0.03746827046781093       656.4939956199064
0.03769777103645843       656.2345680004397
0.03792718141620601       656.0652419572772
0.0381566821485052        655.9860174904189
0.03838645356182577       655.9968945998643
0.03861667534858004       656.0978732856137
0.038846895274787324      656.1003711833816
0.039076664838430766      656.2133834856811
0.03930616372759302       656.4369101925122
0.03953557226638858       656.7709513038745
0.039765070991905134      657.2155068197687
0.039994840228642616      657.7705767401941
0.040225059665450036      658.4361610651512
0.04045597761776665       658.9872807278584
0.04068644078597457       659.6288233428194
0.04091663062609736       660.3607889100342
0.041146729240799984      661.1831774295028
0.04137691894925231       662.0959889012256
0.04160738185443156       663.0992233252018
0.04183829941298208       664.192880701432
0.04206856149768976       665.2366989833258
0.04229837277362926       666.3204569836018
0.04252791316640542       667.4441547022599
0.04275736323887129       668.6077921392998
0.04298690376702529       669.811369294722
0.04321671531340127       671.054886168526
0.04344697780296935       672.3383427607122
0.043676731016186174      673.6833921982073
0.04390603674591497       675.0374803147956
0.04413507359840861       676.4006071104767
0.04436402080919017       677.7727725852508
0.044593057824233256      679.1539767391181
0.04482236387867965       680.544219572078
0.045052117578024006      681.943501084131
0.045282012653644836      683.3499287736372
0.045511459262636354      684.7373465302697
0.04574063633797325       686.1057543540289
0.04596972344420469       687.4551522449146
0.046198900357357554      688.7855402029271
0.046428346642361965      690.0969182280659
0.04665824123294997       691.3892863203313
0.04688855484177433       692.5934001673181
0.04711841720894409       693.77018753201
0.04734800837831597       694.9196484144069
0.04757750903201372       696.0417828145087
0.047807100065861544      697.136590732316
0.04803696216230292       698.204072167828
0.04826727536583021       699.2442271210454
0.048498193048686675      700.0706245824542
0.048728656077441146      700.8652202525893
0.04895884590902903       701.6280141314506
0.04918894464672031       702.3590062190381
0.04941913460997818       703.058196515352
0.04964959790176041       703.7255850203918
0.04988051597838159       704.361171734158
0.05011073543954296       704.6587456801216
0.0503405047004922        704.9399537111756
0.05057000345013497       705.2047958273193
0.05079941201302823       705.4532720285538
0.05102891092631677       705.6853823148786
0.05125868051417213       705.9011266862932
0.051488900464733596      706.1005051427983
