% Model:              brazing.mph
% Version:            COMSOL 5.3.0.223
% Date:               Oct 24 2018, 05:47
% Dimension:          1
% Nodes:              193
% Expressions:        1
% Description:        Line graph
% x                       Height
0                         696.1390160210727
1.6028433640637486E-4     696.2134060518616
3.201839556876346E-4      696.2806577856821
4.7982673004648776E-4     696.3407712225345
6.393411493738095E-4      696.3937463624187
7.988560137323205E-4      696.4395832053348
9.58500122107595E-4       696.4782817512825
0.0011184019611720658     696.509842000262
0.0012786893978073315     696.5342639522734
0.0014692881782178572     696.5526329834668
0.0016592398034323465     696.5554703338781
0.0018487589083489172     696.5427760035075
0.00203806159906999       696.5145499923547
0.0022273647228667317     696.4707923004199
0.0024168851255237504     696.4115029277033
0.002606838908709185      696.3366818742045
0.0027974407000143733     696.2463291399237
0.003000214284638094      696.1257499033654
0.0032022105766743216     695.9914182763175
0.003403687017647933      695.84333425878
0.0036049030444305387     695.6814978507533
0.0038061191011872996     695.5059090522371
0.004007595631967136      695.3165678632314
0.00420959207329518       695.1134742837361
0.00441236586612622       694.8966283137514
0.004615139632985625      694.6556607131538
0.004817136048636202      694.4110757210227
0.005018612553936322      694.1628733373577
0.005219828585313435      693.9110535621594
0.005421044586718146      693.6556163954273
0.0056225210022172924     693.3965618371616
0.005824517268584787      693.1338898873623
0.006027290827249049      692.8676005460294
0.006217890949519272      692.5907254382697
0.006407844130704021      692.3306298030207
0.0065973647866391935     692.0873136402819
0.00678666880286996       691.8607769500534
0.006975972806121895      691.6510197323353
0.007165493423165078      691.4580419871277
0.007355446539677438      691.2818437144305
0.007546046571713631      691.1224249142437
0.00770633524869351       691.0022282407699
0.007866237248851195      690.8979215000937
0.008025880956992212      690.8095046922153
0.008185395381580456      690.7369778171345
0.008344909844757132      690.6803408748515
0.008504553668569658      690.639593865366
0.008664455861201733      690.6147367886781
0.008824744806995652      690.605769644788
0.008985029143401957      690.6135916884103
0.009144928762683142      690.6416629483415
0.009304571537041926      690.6899834245816
0.009464085956369179      690.7585531171306
0.00962360082072762       690.8473720259884
0.009783244929102828      690.9564401511551
0.009943146768167231      691.0857574926306
0.010103434204802428      691.235324050415
0.010294032985212885      691.4038553163388
0.010483984610427306      691.590783976167
0.01067350371534381       691.7961100298995
0.010862806406064813      692.0198334775366
0.011052109529861487      692.2619543190781
0.011241629932518437      692.522472554524
0.011431583715703804      692.8013881838742
0.011622185507008923      693.098701207129
0.011824959091632737      693.3938641855515
0.012026955383669057      693.6819875919441
0.012228431824642762      693.9630714263063
0.01242964785142546       694.2371156886385
0.012630863908182311      694.5041203789405
0.012832340438962243      694.7640854972122
0.01303433688029038       695.0170110434537
0.013237110673121513      695.2628970176652
0.013439884439981065      695.4915561262964
0.013641880855631786      695.702262244774
0.013843357360932049      695.8950153730988
0.014044573392309304      696.0698155112703
0.014245789393714157      696.2266626592888
0.014447265809213447      696.365556817154
0.014649262075581083      696.486497984866
0.01485203563424549       696.5894861624248
0.015042635756515686      696.6742287843484
0.015232588937700405      696.7438090583242
0.015422109593635547      696.7982269843527
0.015611413609866287      696.8374825624333
0.015800717613118194      696.8615757925662
0.01599023823016135       696.8705066747516
0.01618019134667368       696.8642752089892
0.016370791378709844      696.8428813952792
0.016531080055689654      696.8011242981603
0.01669098205584727       696.7560380011975
0.016850625763988217      696.7076225043908
0.017010140188576394      696.6558778077401
0.017169654651752998      696.6008039112455
0.017329298475565455      696.542400814907
0.017489200668197463      696.4806685187244
0.01764948961399131       696.415607022698
0.01780977395039525       696.3230640097883
0.017969673569674088      696.2198862789713
0.018129316344030533      696.1060738302468
0.01828883076335545       695.9816266636151
0.01844834562771156       695.846544779076
0.01860798973608443       695.7008281766294
0.018767891575146484      695.5444768562758
0.018928179011779317      695.3774908180146
0.019118777792188433      695.1209482608018
0.019308729417401523      694.8440979523822
0.019498248522316707      694.5469398927554
0.019687551213036395      694.2294740819217
0.019876854336831753      693.891700519881
0.02006637473948738       693.5336192066333
0.020256328522671414      693.1552301421785
0.020446930313975188      692.7565333265169
0.02064970389860279       692.2862710264533
0.02085170019064286       691.8042642059632
0.02105317663162028       691.3105128650473
0.02125439265840668       690.8050170037048
0.021455608715167235      690.2877766219364
0.02165708524595088       689.7587917197415
0.021859081687282764      689.2180622971205
0.02206185548011769       688.6655883540732
0.022264629246980954      688.1224702831568
0.022466625662635346      687.5901881680601
0.022668102167939252      687.0687420087828
0.022869318199320136      686.5581318053249
0.023070534200728618      686.0583575576867
0.023272010616231548      685.5694192658679
0.023474006882602858      685.0913169298688
0.02367678044127098       684.6240505496891
0.02386738056353977       684.1738595786358
0.024057333744723106      683.7551400181784
0.02424685440065687       683.367891868317
0.024436158416886237      683.0121151290516
0.02462546242013677       682.6878098003823
0.024814983037178547      682.3949758823088
0.025004936153689494      682.1336133748314
0.025195536185724256      681.9037222779499
0.0253558248627017        681.7037194850406
0.025515726862856965      681.5306856455121
0.025675370570995573      681.3846207593648
0.02583488499558142       681.2655248265986
0.02599439945875569       681.1733978472136
0.02615404328256581       681.1082398212096
0.026313945475195465      681.0700507485867
0.026474234420986946      681.0588306293449
0.026634518757392422      681.0685899559046
0.02679441837667279       681.1019438830648
0.026954061151030752      681.1588924108255
0.02711357557035719       681.2394355391867
0.027273090434714816      681.3435732681485
0.027432734543089202      681.4713055977109
0.027592636382152785      681.6226325278736
0.02775292381878715       681.7975540586369
0.02794352259919713       682.0124897901132
0.02813347422441108       682.2575013980542
0.028322993329327112      682.5325888824598
0.028512296020047647      682.8377522433303
0.02870159914384385       683.1729914806656
0.028891119546500334      683.5383065944656
0.02908107332968523       683.9336975847305
0.029271675120989875      684.3591644514601
0.02947444870561504       684.8289886093955
0.029676444997652693      685.3083996173876
0.02987792143862772       685.7973974754359
0.030079137465411736      686.2959821835408
0.030280353522169904      686.8041537417021
0.030481830052951155      687.3219121499199
0.030683826494280624      687.8492574081939
0.030886600287113104      688.3861895165245
0.03108937405397396       688.9166179856467
0.03129137046962597       689.4416947120678
0.03149284697492751       689.9614196957883
0.03169406300630604       690.4757929368078
0.03189527900771217       690.9848144351265
0.03209675542321274       691.4884841907443
0.03229875168958166       691.9868022036613
0.03250152524824737       692.4797684738775
0.03269212537051706       692.8779613676594
0.03288207855170127       693.2542516959301
0.033071599207635916      693.608639458689
0.033260903223866156      693.9411246559364
0.033450207227117564      694.2517072876723
0.033639727844160215      694.5403873538967
0.03382968096067204       694.8071648546094
0.034020280992707694      695.0520397898107
0.034180569669686675      695.2288486061309
0.03434047166984347       695.3939611974758
0.0345001153779836        695.5473775638461
0.03465962980257096       695.6890977052412
0.03481914426574675       695.8191216216616
0.034978788089558385      695.9374493131069
0.03513869028218957       696.0440807795773
0.035298979227982585      696.1390160210727
