% Model:              brazing.mph
% Version:            COMSOL 5.3.0.223
% Date:               Oct 24 2018, 05:00
% Dimension:          1
% Nodes:              225
% Expressions:        1
% Description:        Line graph
% x                       Height
0                         733.7604475797909
2.3022181212578358E-4     733.5678065663445
4.5999325066962656E-4     733.3458947022934
6.894940081029028E-4      733.0947119876378
9.189044129547812E-4      732.8142584223773
0.001148405006736289      732.5045340065126
0.0013781761183620641     732.1655387400427
0.001608397441069865      731.7972726229685
0.001839314118928521      730.9804059360398
0.0020697760201574002     730.1647081940083
0.002299964597801726      729.3501793968741
0.0025300619515304015     728.536819544637
0.0027602503975112853     727.7246286372974
0.0029907120357255193     726.9136066748547
0.003221628319839081      726.1037536573094
0.0034518885683530987     725.0567202319447
0.0036816980188178403     723.9936937736284
0.003911236592567028      722.9146742823597
0.004140684848157368      721.8196617581393
0.004370223557282477      720.7086562009672
0.004600033278179856      719.5816576108427
0.004830293931548535      718.4386659877665
0.005060048526376791      717.1162358291446
0.005289355629682316      715.802626079443
0.005518393850920054      714.4978367386617
0.005747342428834         713.2018678068008
0.00597638081262499       711.9147192838604
0.006205688240655705      710.6363911698401
0.006435443321622868      709.3668834647403
0.006665339619110656      708.0273105132442
0.006894787442849326      706.707062398185
0.007123965728649401      705.4061391195634
0.007353054043912613      704.1245406773786
0.007582232167524012      702.8622670716318
0.007811679667266285      701.6193183023216
0.008041575479707366      700.3956943694491
0.008271887219609135      699.1780991523688
0.008501747728772392      698.0000451982866
0.008731337046705121      696.8615325072021
0.008960835851156599      695.7625610791154
0.009190425033567954      694.7031309140268
0.009420285272008154      693.6832420119358
0.009650596606620833      692.7028943728428
0.009881512912836019      691.7634031783865
0.010111974573021956      690.8809243398507
0.010342163040896366      690.0554578572352
0.010572260416492441      689.2870037305403
0.010802449016030204      688.5755619597661
0.011032910939230619      687.921132544912
0.011263827639190652      687.3237154859787
0.011494048967061755      686.760058098294
0.011723820083820682      686.285187637431
0.011953320682717213      685.8991041033893
0.012182731092678062      685.6018074961688
0.012412231855226382      685.3932978157701
0.012642003298903411      685.2735750621924
0.012872225116192546      685.2426392354364
0.013102446994778118      685.0369285972714
0.013332218499393473      684.9456607874175
0.01356171932266464       684.9688358058745
0.013791129793276359      685.1064536526424
0.01402063045289555       685.3585143277214
0.014250401630592404      685.7250178311109
0.014480623019759359      686.2059641628116
0.014711539835704642      686.4911771186611
0.014942001874208778      686.8730425377199
0.015172190588640395      687.351560419988
0.01540228807899374       687.9267307654655
0.015632476661762654      688.5985535741529
0.015862938437253588      689.3670288460493
0.01609385485945594       690.2321565811552
0.016324115336228646      691.0058912554795
0.016553925013622208      691.8243023823724
0.016783463813500554      692.6873899618339
0.017012912294953733      693.5951539938642
0.01724245123020976       694.5475944784635
0.01747226117803945       695.5447114156311
0.017702522059672054      696.5865048053677
0.017932276794613372      697.6467511426575
0.018161584037218948      698.7342589252469
0.018390622397267263      699.8490281531357
0.018619571113827754      700.9910588263241
0.018848609636427344      702.1603509448123
0.019077917203754128      703.3569045085997
0.019307672424828403      704.5807195176867
0.019537568573699274      705.7224817920921
0.01976701624968263       706.8767939931088
0.019996194388245302      708.0436561207366
0.020225282556443316      709.2230681749758
0.020454460532815345      710.4150301558262
0.02068390788479834       711.6195420632877
0.020913803548616574      712.8366038973605
0.02114411498977932       713.8495880350504
0.021373975201947604      714.8708561746822
0.02160356422393484       715.9004083162562
0.02183306273279162       716.9382444597725
0.02206265161925901       717.9843646052312
0.02229251156070728       719.0387687526319
0.02252282259658549       720.101456901975
0.022753738766914562      720.8378942712219
0.022984200292012823      721.5687125248656
0.023214388625279938      722.2939116629055
0.023444485866429166      723.013491685342
0.023674674331359946      723.7274525921753
0.023905136119473275      724.4357943834045
0.024136052683548088      725.1385170590306
0.024366274021741702      725.4351764928103
0.024596045148762867      725.7287752871496
0.024825545757885373      726.0193134420481
0.02505495617806012       726.306790957506
0.02528445695083446       726.5912078335238
0.025514228404773787      726.8725640701003
0.025744450232385536      727.1508596672367
0.025974672267095825      727.0149057633612
0.026204443926923768      726.8583967841419
0.02643394490485871       726.6813327295781
0.02666335552995085       726.4837135996705
0.026892856344233315      726.2655393944192
0.02712262767714175       726.0268101138234
0.02735284922243193       725.767525757884
0.027583766528201624      725.0444340728794
0.027814229053652367      724.3120421470373
0.028044418253299775      723.5703499803573
0.02827451622829193       722.8193575728396
0.028504705296278778      722.0590649244847
0.028735167558720572      721.2894720352915
0.028966084470753738      720.5105789052609
0.029196345605491433      719.533503072238
0.02942615593701711       718.5189648808733
0.02965569538872289       717.4669643311667
0.029885144521236064      716.3775014231185
0.030114684108324883      715.2505761567285
0.030344494710297387      714.0861885319964
0.030574756249911007      712.8843385489228
0.030804511377321087      711.593237448321
0.031033819010118435      710.2895608606158
0.031262857758987544      708.9733087858062
0.03149180686390927       707.6444812238929
0.031720845775323685      706.303078174876
0.031950153732830305      704.9490996387547
0.032179909346355486      703.5825456155299
0.0324098051544111        702.2420288384255
0.032639252491552244      700.9086954559019
0.03286843029245836       699.5825454679597
0.0330975181233935        698.2635788745982
0.03332669576210278       696.9517956758184
0.03355614277523119       695.6471958716193
0.033786038098215655      694.3497794620015
0.034016348759356954      693.1186485654065
0.03424620819605658       691.9275112543924
0.034475796445315066      690.7763675289585
0.03470529418235937       689.6652173891052
0.03493488229610333       688.5940608348328
0.035164741462093585      687.5628978661407
0.03539505171796626       686.5717284830292
0.035625967353597694      685.6594242728219
0.03585642834714083       684.8129028038909
0.036086616150743635      684.0321640762359
0.03631671286286018       683.3172080898572
0.03654690079812825       682.6680348447551
0.036777362054689705      682.0846443409287
0.03700827808407173       681.5670365783789
0.03723849938140827       681.1151586964692
0.03746827046781093       680.7592977834223
0.03769777103645843       680.4994538392381
0.03792718141620601       680.3356268639163
0.0381566821485052        680.2678168574577
0.03838645356182577       680.2960238198611
0.03861667534858004       680.4202477511276
0.038846895274787324      680.4337951384482
0.039076664838430766      680.5658153142437
0.03930616372759302       680.8163082785136
0.03953557226638858       681.1852740312585
0.039765070991905134      681.6727125724783
0.039994840228642616      682.2786239021725
0.040225059665450036      683.0030080203418
0.04045597761776665       683.6008257836605
0.04068644078597457       684.2951318227068
0.04091663062609736       685.0859261374809
0.041146729240799984      685.9732087279825
0.04137691894925231       686.9569795942123
0.04160738185443156       688.0372387361693
0.04183829941298208       689.2139861538542
0.04206856149768976       690.3380723964597
0.04229837277362926       691.5033025448258
0.04252791316640542       692.7096765989527
0.04275736323887129       693.9571945588407
0.04298690376702529       695.2458564244896
0.04321671531340127       696.575662195899
0.04344697780296935       697.9466118730694
0.043676731016186174      699.3872847092068
0.04390603674591497       700.8359666714098
0.04413507359840861       702.2926577596781
0.04436402080919017       703.757357974012
0.044593057824233256      705.2300673144118
0.04482236387867965       706.7107857808767
0.045052117578024006      708.1995133734073
0.045282012653644836      709.7030659422699
0.045511459262636354      711.1839498738008
0.04574063633797325       712.6421651679999
0.04596972344420469       714.0777118248677
0.046198900357357554      715.4905898444044
0.046428346642361965      716.880799226609
0.04665824123294997       718.2483399714824
0.04688855484177433       719.5325156764538
0.04711841720894409       720.7847524807688
0.04734800837831597       722.0050503844276
0.04757750903201372       723.1934093874297
0.047807100065861544      724.3498294897759
0.04803696216230292       725.4743106914653
0.04826727536583021       726.5668529924986
0.048498193048686675      727.4475251713446
0.048728656077441146      728.2908629372763
0.04895884590902903       729.0968662902936
0.04918894464672031       729.865535230397
0.04941913460997818       730.5968697575861
0.04964959790176041       731.2908698718608
0.04988051597838159       731.9475355732214
0.05011073543954296       732.2637000639767
0.0503405047004922        732.5608055343167
0.05057000345013497       732.8388519842418
0.05079941201302823       733.0978394137516
0.05102891092631677       733.3377678228467
0.05125868051417213       733.5586372115263
0.051488900464733596      733.7604475797909
