% Model:              brazing.mph
% Version:            COMSOL 5.3.0.223
% Date:               Oct 24 2018, 01:36
% Dimension:          1
% Nodes:              225
% Expressions:        1
% Description:        Line graph
% x                       Height
0                         714.113115130705
2.3022181212578358E-4     713.9517341969273
4.5999325066962656E-4     713.7669357428398
6.894940081029028E-4      713.5587197684425
9.189044129547812E-4      713.3270862737354
0.001148405006736289      713.0720352587186
0.0013781761183620641     712.7935667233918
0.001608397441069865      712.4916806677553
0.001839314118928521      711.756560048494
0.0020697760201574002     711.0279984964333
0.002299964597801726      710.3059960115733
0.0025300619515304015     709.590552593914
0.0027602503975112853     708.8816682434556
0.0029907120357255193     708.1793429601976
0.003221628319839081      707.4835767441404
0.0034518885683530987     706.5575554329467
0.0036816980188178403     705.6205318973823
0.003911236592567028      704.6725061374473
0.004140684848157368      703.7134781531418
0.004370223557282477      702.743447944466
0.004600033278179856      701.762415511419
0.004830293931548535      700.7703808540018
0.005060048526376791      699.5982461134045
0.005289355629682316      698.4372114196531
0.005518393850920054      697.2872767727472
0.005747342428834         696.1484421726874
0.00597638081262499       695.0207076194737
0.006205688240655705      693.9040731131051
0.006435443321622868      692.7985386535828
0.006665339619110656      691.6187077682924
0.006894787442849326      690.4580467879251
0.007123965728649401      689.3165557124801
0.007353054043912613      688.1942345419578
0.007582232167524012      687.0910832763584
0.007811679667266285      686.0071019156812
0.008041575479707366      684.9422904599269
0.008271887219609135      683.8772738507043
0.008501747728772392      682.8479239516305
0.008731337046705121      681.8542407627052
0.008960835851156599      680.8962242839285
0.009190425033567954      679.973874515301
0.009420285272008154      679.0871914568215
0.009650596606620833      678.236175108491
0.009881512912836019      677.4182663519259
0.010111974573021956      676.6506050509097
0.010342163040896366      675.9331912054427
0.010572260416492441      675.2660248155246
0.010802449016030204      674.6491058811561
0.011032910939230619      674.0824344023359
0.011263827639190652      673.5660103790652
0.011494048967061755      673.0744802997333
0.011723820083820682      672.6626535470265
0.011953320682717213      672.3305301209442
0.012182731092678062      672.0781100214871
0.012412231855226382      671.9053932486548
0.012642003298903411      671.8123798024474
0.012872225116192546      671.7990696828649
0.013102446994778118      671.611789580739
0.013332218499393473      671.5286860979152
0.01356171932266464       671.5497592343935
0.013791129793276359      671.6750089901736
0.01402063045289555       671.9044353652561
0.014250401630592404      672.2380383596402
0.014480623019759359      672.6758179733265
0.014711539835704642      672.9160442073995
0.014942001874208778      673.245158385575
0.015172190588640395      673.663160507853
0.01540228807899374       674.1700505742336
0.015632476661762654      674.7658285847172
0.015862938437253588      675.4504945393028
0.01609385485945594       676.2240484379912
0.016324115336228646      676.9003913144614
0.016553925013622208      677.617463326867
0.016783463813500554      678.3752644752083
0.017012912294953733      679.1737947594847
0.01724245123020976       680.013054179697
0.01747226117803945       680.8930427358445
0.017702522059672054      681.8137604279275
0.017932276794613372      682.7448965214487
0.018161584037218948      683.7022551934521
0.018390622397267263      684.685836443937
0.018619571113827754      685.6956402729037
0.018848609636427344      686.7316666803525
0.019077917203754128      687.7939156662828
0.019307672424828403      688.8823872306951
0.019537568573699274      689.8847572078794
0.01976701624968263       690.9018051708565
0.019996194388245302      691.9335311196268
0.020225282556443316      692.97993505419
0.020454460532815345      694.0410169745467
0.02068390788479834       695.116776880696
0.020913803548616574      696.2072147726386
0.02114411498977932       697.0909430557795
0.021373975201947604      697.9869387034423
0.02160356422393484       698.8952017156273
0.02183306273279162       699.8157320923344
0.02206265161925901       700.748529833564
0.02229251156070728       701.6935949393154
0.02252282259658549       702.6509274095891
0.022753738766914562      703.2801293808506
0.022984200292012823      703.9101307755425
0.023214388625279938      704.5409315936639
0.023444485866429166      705.1725318352159
0.023674674331359946      705.804931500198
0.023905136119473275      706.4381305886099
0.024136052683548088      707.072129100452
0.024366274021741702      707.296346615951
0.024596045148762867      707.5246016079016
0.024825545757885373      707.7568940763028
0.02505495617806012       707.9932240211555
0.02528445695083446       708.2335914424597
0.025514228404773787      708.4779963402146
0.025744450232385536      708.726438714421
0.025974672267095825      708.5680490475004
0.026204443926923768      708.3948844287214
0.02643394490485871       708.2069448580836
0.02666335552995085       708.0042303355874
0.026892856344233315      707.7867408612328
0.02712262767714175       707.5544764350193
0.02735284922243193       707.3074370569475
0.027583766528201624      706.6177294978052
0.027814229053652367      705.9252790502462
0.028044418253299775      705.2300857142702
0.02827451622829193       704.5321494898774
0.028504705296278778      703.8314703770682
0.028735167558720572      703.1280483758417
0.028966084470753738      702.4218834861986
0.029196345605491433      701.5315720349543
0.02942615593701711       700.61012937614
0.02965569538872289       699.6575555097552
0.029885144521236064      698.6738504358001
0.030114684108324883      697.6590141542753
0.030344494710297387      696.6130466651799
0.030574756249911007      695.5359479685145
0.030804511377321087      694.3736714788536
0.031033819010118435      693.2021348909725
0.031262857758987544      692.0213382048714
0.03149180686390927       690.8312814205505
0.031720845775323685      689.6319645380098
0.031950153732830305      688.4233875572487
0.032179909346355486      687.2055504782678
0.0324098051544111        686.0114248203358
0.032639252491552244      684.8245721426699
0.03286843029245836       683.6449924452701
0.0330975181233935        682.4726857281365
0.03332669576210278       681.3076519912695
0.03355614277523119       680.1498912346681
0.033786038098215655      678.9994034583332
0.034016348759356954      677.9105268835566
0.03424620819605658       676.856916464197
0.034475796445315066      675.8385722002541
0.03470529418235937       674.8554940917281
0.03493488229610333       673.9076821386194
0.035164741462093585      672.9951363409273
0.03539505171796626       672.1178566986523
0.035625967353597694      671.3120763771603
0.03585642834714083       670.5639224548968
0.036086616150743635      669.8733949318621
0.03631671286286018       669.2404938080558
0.03654690079812825       668.6652190834784
0.036777362054689705      668.1475707581294
0.03700827808407173       667.6875488320092
0.03723849938140827       667.2839400211
0.03746827046781093       666.9663507974948
0.03769777103645843       666.7347811611932
0.03792718141620601       666.5892311121954
0.0381566821485052        666.5297006505018
0.03838645356182577       666.5561897761116
0.03861667534858004       666.6686984890255
0.038846895274787324      666.6634690229236
0.039076664838430766      666.7665127492709
0.03930616372759302       666.9778296680676
0.03953557226638858       667.2974197793137
0.039765070991905134      667.7252830830095
0.039994840228642616      668.2614195791543
0.040225059665450036      668.9058292677488
0.04045597761776665       669.4135879958528
0.04068644078597457       670.0102525519517
0.04091663062609736       670.6958229360453
0.041146729240799984      671.4702991481337
0.04137691894925231       672.3336811882173
0.04160738185443156       673.2859690562952
0.04183829941298208       674.3271627523683
0.04206856149768976       675.3067044510402
0.04229837277362926       676.3235206558514
0.04252791316640542       677.3776113668015
0.04275736323887129       678.4689765838906
0.04298690376702529       679.5976163071191
0.04321671531340127       680.7635305364864
0.04344697780296935       681.9667192719929
0.043676731016186174      683.2341512737679
0.04390603674591497       684.5095577938563
0.04413507359840861       685.7929388322577
0.04436402080919017       687.0842943889721
0.044593057824233256      688.3836244640001
0.04482236387867965       689.690929057341
0.045052117578024006      691.0062081689952
0.045282012653644836      692.3357396669294
0.045511459262636354      693.6473706179625
0.04574063633797325       694.9411010220939
0.04596972344420469       696.2169308793237
0.046198900357357554      697.4748601896524
0.046428346642361965      698.7148889530793
0.04665824123294997       699.9370171696048
0.04688855484177433       701.0782953676578
0.04711841720894409       702.1950418567504
0.04734800837831597       703.287256636883
0.04757750903201372       704.3549397080552
0.047807100065861544      705.3980910702677
0.04803696216230292       706.4167107235196
0.04826727536583021       707.4107986678115
0.048498193048686675      708.1965314649268
0.048728656077441146      708.9549401592571
0.04895884590902903       709.6860247508027
0.04918894464672031       710.3897852395634
0.04941913460997818       711.0662216255395
0.04964959790176041       711.7153339087305
0.04988051597838159       712.3371220891368
0.05011073543954296       712.6225099427471
0.0503405047004922        712.8973396090382
0.05057000345013497       713.1616110880101
0.05079941201302823       713.4153243796626
0.05102891092631677       713.6584794839962
0.05125868051417213       713.8910764010101
0.051488900464733596      714.113115130705
