% Model:              brazing.mph
% Version:            COMSOL 5.3.0.223
% Date:               Oct 24 2018, 04:38
% Dimension:          1
% Nodes:              145
% Expressions:        1
% Description:        Line graph
% x                       Height
0                         720.7970320478391
1.8037553861809572E-4     721.0692496702816
3.5951128344368776E-4     721.285243070678
5.377561773732229E-4      721.4450122490287
7.154644111300318E-4      721.5485572053335
8.929933875627798E-4      721.5958779395925
0.0010707015910786408     721.5869744518053
0.0012489464247083767     721.5218467419726
0.0014280820795340731     721.4004948100937
0.0016084574989771061     721.2229186561691
0.0017793134314883058     721.1542017174041
0.0019491114898538484     721.0599451145553
0.002118149876008701      720.9401488476227
0.0022867308232763497     720.7948129166065
0.002455159027530182      720.6239373215064
0.0026237400128558564     720.4275220623227
0.0027927784749207734     720.2055671390551
0.0029625766466419693     719.9580725517038
0.0031334327293582195     719.6850383002688
0.0033042867504275058     719.5094171738695
0.0034740828875811486     719.3279226611272
0.0036431193341009516     719.1405547620428
0.0038116983146850476     718.9473134766159
0.003980124516686077      718.7481988048464
0.004148703455848711      718.5432107467345
0.004317739819749776      718.3323493022802
0.004487535833529769      718.1156144714834
0.004658389691119368      717.8930062543438
0.0048387629974717405     717.7715681499845
0.005017896580971026      717.6534294883207
0.005196139373513023      717.5385902693531
0.0053738455543625        717.4270504930812
0.005551372514551955      717.3188101595051
0.005729078726427549      717.213869268625
0.005907321580834967      717.1122278204404
0.006086455256670912      717.0138858149517
0.006266828685292636      716.9188432521589
0.0064472042239161545     717.07398421044
0.0066263399687470585     717.2360139124044
0.00680458486268183       717.4049323580522
0.0069822930964438265     717.5807395473834
0.007159822072881748      717.763435480398
0.007337530276402798      717.9530201570959
0.007515775110037768      718.1494935774771
0.007694910764868775      718.3528557415417
0.007875286184317232      718.5631066492897
0.008046142116827224      718.836350176553
0.008215940175191578      719.100255331773
0.008384978561345261      719.35482211495
0.008553559508611747      719.600050526084
0.008721987712864422      719.835940565175
0.008890568698188937      720.0624922322227
0.00905960716025268       720.2797055272272
0.009229405331972688      720.4875804501888
0.009400261414687729      720.6861170011072
0.009571115435747398      721.0114946823699
0.009740911572891598      721.306308017424
0.009909948019402086      721.5705570062702
0.010078526999976944      721.8042416489079
0.010246953201968763      722.0073619453375
0.010415532141122159      722.1799178955588
0.010584568505013912      722.3219094995715
0.010754364518784467      722.4333367573761
0.010925218376364454      722.5141996689724
0.011105591682722255      722.6774153743793
0.01128472526622686       722.7935572667085
0.011462968058774099      722.8626253459602
0.011640674239628768      722.8846196121344
0.011818201199823401      722.8595400652309
0.01199590741170419       722.7873867052502
0.012174150266116847      722.6681595321915
0.012353283941958112      722.5018585460555
0.012533657370585264      722.2884837468418
0.01271403176453574       722.2644166324656
0.012893166387683227      722.1845591967558
0.013071410176518557      722.0489114397132
0.013249117315197753      721.8574733613374
0.013426645199902413      721.6102449616285
0.013604352308338922      721.3072262405865
0.01378259603687098       720.9484171982114
0.013961730570013379      720.5338178345029
0.014142104844781908      720.0634281494616
0.014312959944399205      719.6665994407791
0.014482757184992078      719.245011494239
0.014651794764271453      718.7986643098415
0.014820374911240972      718.3275578875866
0.014988802317395246      717.8316922274742
0.01515738250242126       717.3110673295045
0.015326420157607648      716.765683193677
0.015496217511551624      716.1955398199922
0.015667072761367945      715.6006372084499
0.01583792791479403       715.0930504336343
0.016007725163749622      714.5923464178447
0.01617676270725794       714.098525161082
0.01634534277588875       713.6115866633455
0.016513770062946447      713.1315309246356
0.01668235009015449       712.6583579449521
0.016851387551041475      712.192067724295
0.017021184676619543      711.7326602626644
0.017192039666560827      711.2801355600603
0.017372413817338207      710.9129456348027
0.017551548228302124      710.569969829754
0.017729791836073705      710.2512081449145
0.017907498824762332      709.9566605802839
0.018085026590318725      709.6863271358624
0.018262733610032132      709.44020781165
0.018440977279666457      709.2183026076464
0.018620111782963036      709.0206115238522
0.018800486056004474      708.8471345602668
0.018980860449944497      708.9443834940104
0.019159995073081745      709.0716746440853
0.019338238861906984      709.2290080104922
0.01951594600057618       709.4163835932305
0.019693473885270874      709.6338013923004
0.019871180993697383      709.8812614077023
0.020049424722219357      710.1587636394355
0.02022855925535152       710.4663080875001
0.0204089335301096        710.8038947518967
0.02057978862980686       711.2075639353968
0.020749585870478253      711.6124189392376
0.020918623449835097      712.0184597634196
0.021087203596881453      712.4256864079424
0.021255631003112355      712.8340988728063
0.021424211188215206      713.243697158011
0.021593248843479067      713.6544812635565
0.021763046197501558      714.0664511894429
0.02193390144739785       714.4796069356704
0.022104756600747556      715.0518155336542
0.02227455384962815       715.5971903800793
0.02244359139306247       716.1157314749461
0.022612171461619885      716.6074388182544
0.022780598748604386      717.0723124100039
0.022949178775739036      717.5103522501953
0.02311821623655202       717.9215583388279
0.023288013362055097      718.3059306759018
0.023458868351919994      718.6634692614176
0.02363924250270423       719.0926316824892
0.023818376913674867      719.473769131249
0.023996620521453065      719.806881607697
0.02417432751014825       720.0919691118336
0.02435185527571118       720.3290316436583
0.024529562295431146      720.5180692031712
0.02470780596507209       720.6590817903723
0.024886940468375387      720.7520694052614
0.025067314741423676      720.7970320478391
