% Model:              brazing.mph
% Version:            COMSOL 5.3.0.223
% Date:               Oct 24 2018, 03:36
% Dimension:          1
% Nodes:              193
% Expressions:        1
% Description:        Line graph
% x                       Height
0                         605.3746587509885
1.6028433640637486E-4     605.4543765260781
3.201839556876346E-4      605.5268833338993
4.7982673004648776E-4     605.5921791744519
6.393411493738095E-4      605.6502640477361
7.988560137323205E-4      605.7011379537519
9.58500122107595E-4       605.744800892499
0.0011184019611720658     605.7812528639779
0.0012786893978073315     605.8104938681882
0.0014692881782178572     605.8333705600509
0.0016592398034323465     605.8397072355693
0.0018487589083489172     605.8295038947441
0.00203806159906999       605.8027605375748
0.0022273647228667317     605.7594771640618
0.0024168851255237504     605.6996537742046
0.002606838908709185      605.6232903680037
0.0027974407000143733     605.5303869454589
0.003000214284638094      605.4101013770247
0.0032022105766743216     605.2746689616735
0.003403687017647933      605.1240896994051
0.0036049030444305387     604.9583635902196
0.0038061191011872996     604.777490634117
0.004007595631967136      604.5814708310974
0.00420959207329518       604.3703041811607
0.00441236586612622       604.1439906843068
0.004615139632985625      603.8880509617712
0.004817136048636202      603.6288124256598
0.005018612553936322      603.3662750759722
0.005219828585313435      603.1004389127088
0.005421044586718146      602.8313039358694
0.0056225210022172924     602.558870145454
0.005824517268584787      602.2831375414626
0.006027290827249049      602.0041061238952
0.006217890949519272      601.7145418661764
0.006407844130704021      601.4427357911682
0.0065973647866391935     601.1886878988705
0.00678666880286996       600.9523981892834
0.006975972806121895      600.7338666624067
0.007165493423165078      600.5330933182406
0.007355446539677438      600.3500781567851
0.007546046571713631      600.1848211780401
0.00770633524869351       600.0609337755294
0.007866237248851195      599.9542371522715
0.008025880956992212      599.8647313082666
0.008185395381580456      599.7924162435147
0.008344909844757132      599.7372919580157
0.008504553668569658      599.6993584517696
0.008664455861201733      599.6786157247764
0.008824744806995652      599.675063777036
0.008985029143401957      599.6903458173084
0.009144928762683142      599.7267841471801
0.009304571537041926      599.784378766651
0.009464085956369179      599.8631296757213
0.00962360082072762       599.9630368743908
0.009783244929102828      600.0841003626595
0.009943146768167231      600.2263201405275
0.010103434204802428      600.3896962079947
0.010294032985212885      600.5774371613977
0.010483984610427306      600.7843878376797
0.01067350371534381       601.0105482368406
0.010862806406064813      601.2559183588803
0.011052109529861487      601.520498203799
0.011241629932518437      601.8042877715967
0.011431583715703804      602.1072870622733
0.011622185507008923      602.4294960758289
0.011824959091632737      602.7479917639996
0.012026955383669057      603.0594256907764
0.012228431824642762      603.3637978561594
0.01242964785142546       603.6611082601486
0.012630863908182311      603.9513569027439
0.012832340438962243      604.2345437839455
0.01303433688029038       604.5106689037532
0.013237110673121513      604.779732262167
0.013439884439981065      605.0231549393926
0.013641880855631786      605.2475739882195
0.013843357360932049      605.4529894086478
0.014044573392309304      605.6394012006773
0.014245789393714157      605.8068093643082
0.014447265809213447      605.9552138995405
0.014649262075581083      606.084614806374
0.01485203563424549       606.1950120848089
0.015042635756515686      606.2867068635402
0.015232588937700405      606.3619780492301
0.015422109593635547      606.4208256418787
0.015611413609866287      606.4632496414857
0.015800717613118194      606.4892500480514
0.01599023823016135       606.4988268615758
0.01618019134667368       606.491980082059
0.016370791378709844      606.4687097095006
0.016531080055689654      606.4235093894094
0.01669098205584727       606.3747844227763
0.016850625763988217      606.3225348096009
0.017010140188576394      606.2667605498833
0.017169654651752998      606.2074616436236
0.017329298475565455      606.1446380908216
0.017489200668197463      606.0782898914774
0.01764948961399131       606.0084170455912
0.01780977395039525       605.9080061579201
0.017969673569674088      605.796033811958
0.018129316344030533      605.6725000077042
0.01828883076335545       605.5374047451594
0.01844834562771156       605.3907480243231
0.01860798973608443       605.2325298451956
0.018767891575146484      605.0627502077768
0.018928179011779317      604.8814091120666
0.019118777792188433      604.6076234810075
0.019308729417401523      604.3121119017104
0.019498248522316707      603.9948743741754
0.019687551213036395      603.6559108984025
0.019876854336831753      603.2952214743915
0.02006637473948738       602.9128061021426
0.020256328522671414      602.5086647816556
0.020446930313975188      602.0827975129308
0.02064970389860279       601.5729434563159
0.02085170019064286       601.0507582272585
0.02105317663162028       600.5162418257582
0.02125439265840668       599.9693942518154
0.021455608715167235      599.4102155054298
0.02165708524595088       598.8387055866017
0.021859081687282764      598.2548644953308
0.02206185548011769       597.6586922316174
0.022264629246980954      597.064459408872
0.022466625662635346      596.4822748904087
0.022668102167939252      595.9121386762275
0.022869318199320136      595.3540507663284
0.023070534200728618      594.8080111607115
0.023272010616231548      594.2740198593766
0.023474006882602858      593.7520768623239
0.02367678044127098       593.2421821695531
0.02386738056353977       592.7509189299965
0.024057333744723106      592.2932633112309
0.02424685440065687       591.8692153132565
0.024436158416886237      591.4787749360733
0.02462546242013677       591.121942179681
0.024814983037178547      590.79871704408
0.025004936153689494      590.50909952927
0.025195536185724256      590.2530896352512
0.0253558248627017        590.0331957454348
0.025515726862856965      589.8420395848188
0.025675370570995573      589.6796211534034
0.02583488499558142       589.5459404511884
0.02599439945875569       589.4409974781738
0.02615404328256581       589.3647922343598
0.026313945475195465      589.3173247197462
0.026474234420986946      589.2985949343331
0.026634518757392422      589.3031253143538
0.02679441837667279       589.3331013487748
0.026954061151030752      589.3885230375961
0.02711357557035719       589.4693903808177
0.027273090434714816      589.5757033784397
0.027432734543089202      589.7074620304619
0.027592636382152785      589.8646663368845
0.02775292381878715       590.0473162977074
0.02794352259919713       590.2748189640162
0.02813347422441108       590.5348495719811
0.028322993329327112      590.8274081216022
0.028512296020047647      591.1524946128797
0.02870159914384385       591.5101090458132
0.028891119546500334      591.9002514204033
0.02908107332968523       592.3229217366493
0.029271675120989875      592.7781199945516
0.02947444870561504       593.2776178948628
0.029676444997652693      593.7886280603242
0.02987792143862772       594.3111504909357
0.030079137465411736      594.8451851866973
0.030280353522169904      595.390732147609
0.030481830052951155      595.9477913736708
0.030683826494280624      596.5163628648828
0.030886600287113104      597.0964466212448
0.03108937405397396       597.665156979579
0.03129137046962597       598.2274847058344
0.03149284697492751       598.7834298000109
0.03169406300630604       599.3329922621086
0.03189527900771217       599.8761720921275
0.03209675542321274       600.4129692900677
0.03229875168958166       600.943383855929
0.03250152524824737       601.4674157897115
0.03269212537051706       601.894371080822
0.03288207855170127       602.2976634863411
0.033071599207635916      602.6772930062681
0.033260903223866156      603.0332596406037
0.033450207227117564      603.3655633893474
0.033639727844160215      603.6742042524994
0.03382968096067204       603.9591822300598
0.034020280992707694      604.2204973220283
0.034180569669686675      604.4072794825836
0.03434047166984347       604.581915362586
0.0345001153779836        604.7444049620353
0.03465962980257096       604.8947482809318
0.03481914426574675       605.0329453192754
0.034978788089558385      605.158996077066
0.03513869028218957       605.2729005543038
0.035298979227982585      605.3746587509885
