% Model:              brazing.mph
% Version:            COMSOL 5.3.0.223
% Date:               Oct 24 2018, 01:19
% Dimension:          1
% Nodes:              225
% Expressions:        1
% Description:        Line graph
% x                       Height
0                         731.6626895437433
2.3022181212578358E-4     731.5235103414672
4.5999325066962656E-4     731.3522683108444
6.894940081029028E-4      731.1489634518747
9.189044129547812E-4      730.9135957645583
0.001148405006736289      730.6461652488955
0.0013781761183620641     730.3466719048856
0.001608397441069865      730.0151157325291
0.001839314118928521      729.2904980515656
0.0020697760201574002     728.5660663948078
0.002299964597801726      727.8418207622551
0.0025300619515304015     727.117761153908
0.0027602503975112853     726.3938875697667
0.0029907120357255193     725.6702000098304
0.003221628319839081      724.9466984740999
0.0034518885683530987     724.0076192300091
0.0036816980188178403     723.0590925665886
0.003911236592567028      722.1011184838376
0.004140684848157368      721.1336969817567
0.004370223557282477      720.1568280603459
0.004600033278179856      719.1705117196045
0.004830293931548535      718.1747479595333
0.005060048526376791      716.9857661650386
0.005289355629682316      715.809478193664
0.005518393850920054      714.6458840454095
0.005747342428834         713.4949837202754
0.00597638081262499       712.3567772182618
0.006205688240655705      711.2312645393679
0.006435443321622868      710.1184456835945
0.006665339619110656      708.9200620901008
0.006894787442849326      707.7435539314131
0.007123965728649401      706.5889212075306
0.007353054043912613      705.4561639184537
0.007582232167524012      704.3452820641827
0.007811679667266285      703.2562756447168
0.008041575479707366      702.1891446600567
0.008271887219609135      701.1122349231416
0.008501747728772392      700.0734345237406
0.008731337046705121      699.0727434618535
0.008960835851156599      698.1101617374807
0.009190425033567954      697.1856893506219
0.009420285272008154      696.299326301277
0.009650596606620833      695.4510725894463
0.009881512912836019      694.6299928779988
0.010111974573021956      693.8615356449751
0.010342163040896366      693.145700890375
0.010572260416492441      692.4824886141985
0.010802449016030204      691.8718988164462
0.011032910939230619      691.3139314971171
0.011263827639190652      690.8085866562119
0.011494048967061755      690.3280394693447
0.011723820083820682      689.9265444404682
0.011953320682717213      689.604101569582
0.012182731092678062      689.3607108566864
0.012412231855226382      689.1963723017818
0.012642003298903411      689.1110859048673
0.012872225116192546      689.1048516659437
0.013102446994778118      688.9551133669013
0.013332218499393473      688.9051304762821
0.01356171932266464       688.9549029940869
0.013791129793276359      689.104430920315
0.01402063045289555       689.3537142549673
0.014250401630592404      689.7027529980428
0.014480623019759359      690.1515471495421
0.014711539835704642      690.4351460460539
0.014942001874208778      690.8040488780721
0.015172190588640395      691.2582556455965
0.01540228807899374       691.7977663486274
0.015632476661762654      692.4225809871649
0.015862938437253588      693.1326995612084
0.01609385485945594       693.9281220707585
0.016324115336228646      694.6409199312556
0.016553925013622208      695.3956534598317
0.016783463813500554      696.1923226564868
0.017012912294953733      697.0309275212209
0.01724245123020976       697.9114680540342
0.01747226117803945       698.8339442549261
0.017702522059672054      699.7983561238973
0.017932276794613372      700.7631503527388
0.018161584037218948      701.755664584739
0.018390622397267263      702.7758988198977
0.018619571113827754      703.823853058215
0.018848609636427344      704.8995272996913
0.019077917203754128      706.0029215443258
0.019307672424828403      707.1340357921191
0.019537568573699274      708.16559438219
0.01976701624968263       709.2134140854719
0.019996194388245302      710.2774949019654
0.020225282556443316      711.3578368316702
0.020454460532815345      712.4544398745868
0.02068390788479834       713.5673040307144
0.020913803548616574      714.6964293000535
0.02114411498977932       715.6071509020503
0.021373975201947604      716.5306022309933
0.02160356422393484       717.4667832868823
0.02183306273279162       718.4156940697177
0.02206265161925901       719.3773345794997
0.02229251156070728       720.3517048162274
0.02252282259658549       721.3388047799017
0.022753738766914562      721.9899809641663
0.022984200292012823      722.6414793181501
0.023214388625279938      723.2932998418535
0.023444485866429166      723.9454425352761
0.023674674331359946      724.5979073984184
0.023905136119473275      725.2506944312798
0.024136052683548088      725.9038036338608
0.024366274021741702      726.1474254896635
0.024596045148762867      726.3898627916054
0.024825545757885373      726.6311155396864
0.02505495617806012       726.8711837339067
0.02528445695083446       727.1100673742666
0.025514228404773787      727.3477664607653
0.025744450232385536      727.5842809934035
0.025974672267095825      727.4610350327919
0.026204443926923768      727.3124443949002
0.02643394490485871       727.1385090797284
0.02666335552995085       726.9392290872763
0.026892856344233315      726.7146044175446
0.02712262767714175       726.4646350705323
0.02735284922243193       726.18932104624
0.027583766528201624      725.5150795216622
0.027814229053652367      724.8290757136675
0.028044418253299775      724.1313096222556
0.02827451622829193       723.4217812474266
0.028504705296278778      722.7004905891807
0.028735167558720572      721.9674376475175
0.028966084470753738      721.2226224224374
0.029196345605491433      720.314752753323
0.02942615593701711       719.3743977364863
0.02965569538872289       718.401557371927
0.029885144521236064      717.3962316596454
0.030114684108324883      716.3584205996418
0.030344494710297387      715.2881241919154
0.030574756249911007      714.1853424364668
0.030804511377321087      712.9852343356691
0.031033819010118435      711.7765919941753
0.031262857758987544      710.559415411986
0.03149180686390927       709.3337045891006
0.031720845775323685      708.0994595255198
0.031950153732830305      706.8566802212428
0.032179909346355486      705.6053666762701
0.0324098051544111        704.3639877798519
0.032639252491552244      703.1318737069446
0.03286843029245836       701.9090244575481
0.0330975181233935        700.6954400316623
0.03332669576210278       699.4911204292878
0.03355614277523119       698.2960656504238
0.033786038098215655      697.1102756950709
0.034016348759356954      695.9748843971495
0.03424620819605658       694.8768263949179
0.034475796445315066      693.8161016883757
0.03470529418235937       692.7927102775236
0.03493488229610333       691.8066521623615
0.035164741462093585      690.8579273428887
0.03539505171796626       689.9465358191059
0.035625967353597694      689.1000914479581
0.03585642834714083       688.3134733677413
0.036086616150743635      687.5866815784553
0.03631671286286018       686.9197160801004
0.03654690079812825       686.3125768726769
0.036777362054689705      685.765263956184
0.03700827808407173       685.2777773306223
0.03723849938140827       684.8461906694166
0.03746827046781093       684.5004450845572
0.03769777103645843       684.2405405760449
0.03792718141620601       684.0664771438788
0.0381566821485052        683.9782547880598
0.03838645356182577       683.9758735085871
0.03861667534858004       684.0593333054612
0.038846895274787324      684.0514571351106
0.039076664838430766      684.1485611728908
0.03930616372759302       684.3506454188014
0.03953557226638858       684.6577098728428
0.039765070991905134      685.0697545350151
0.039994840228642616      685.5867794053178
0.040225059665450036      686.2087844837513
0.04045597761776665       686.7228063712863
0.04068644078597457       687.3232408266407
0.04091663062609736       688.0100878498143
0.041146729240799984      688.7833474408073
0.04137691894925231       689.6430195996202
0.04160738185443156       690.589104326252
0.04183829941298208       691.6216016207034
0.04206856149768976       692.6047335303842
0.04229837277362926       693.6270402018686
0.04252791316640542       694.6885216351562
0.04275736323887129       695.7891778302469
0.04298690376702529       696.9290087871412
0.04321671531340127       698.1080145058384
0.04344697780296935       699.326194986339
0.043676731016186174      700.5999846049313
0.04390603674591497       701.8838413730178
0.04413507359840861       703.1777652905992
0.04436402080919017       704.4817563576751
0.044593057824233256      705.7958145742458
0.04482236387867965       707.1199399403109
0.045052117578024006      708.4541324558708
0.045282012653644836      709.7897339327835
0.045511459262636354      711.1093936015751
0.04574063633797325       712.4131114622458
0.04596972344420469       713.7008875147953
0.046198900357357554      714.9727217592242
0.046428346642361965      716.2286141955319
0.04665824123294997       717.4685648237187
0.04688855484177433       718.6159191811532
0.04711841720894409       719.7396918966133
0.04734800837831597       720.8398829700983
0.04757750903201372       721.9164924016087
0.047807100065861544      722.9695201911449
0.04803696216230292       723.9989663387058
0.04826727536583021       725.0048308442923
0.048498193048686675      725.7937628995852
0.048728656077441146      726.5554291970997
0.04895884590902903       727.2898297368356
0.04918894464672031       727.9969645187931
0.04941913460997818       728.6768335429725
0.04964959790176041       729.329436809373
0.04988051597838159       729.9547743179953
0.05011073543954296       730.2413792914978
0.0503405047004922        730.5137785702967
0.05057000345013497       730.7719721543923
0.05079941201302823       731.015960043785
0.05102891092631677       731.2457422384745
0.05125868051417213       731.4613187384605
0.051488900464733596      731.6626895437433
