% Model:              brazing.mph
% Version:            COMSOL 5.3.0.223
% Date:               Oct 24 2018, 05:49
% Dimension:          1
% Nodes:              193
% Expressions:        1
% Description:        Line graph
% x                       Height
0                         690.5308163050935
1.6028433640637486E-4     690.6056042780804
3.201839556876346E-4      690.673223841893
4.7982673004648776E-4     690.7336749965311
6.393411493738095E-4      690.7869577419948
7.988560137323205E-4      690.833072078284
9.58500122107595E-4       690.8720180053984
0.0011184019611720658     690.9037955233387
0.0012786893978073315     690.9284046321043
0.0014692881782178572     690.9468902932956
0.0016592398034323465     690.9497190662056
0.0018487589083489172     690.9368909508335
0.00203806159906999       690.9084059471795
0.0022273647228667317     690.8642640552439
0.0024168851255237504     690.8044652750265
0.002606838908709185      690.7290096065274
0.0027974407000143733     690.6378970497464
0.003000214284638094      690.5166587921359
0.0032022105766743216     690.3815620571738
0.003403687017647933      690.2326068448596
0.0036049030444305387     690.0697931551935
0.0038061191011872996     689.8931209881754
0.004007595631967136      689.7025903438054
0.00420959207329518       689.4982012220835
0.00441236586612622       689.2799536230095
0.004615139632985625      689.037223648107
0.004817136048636202      688.7908723729687
0.005018612553936322      688.5408997975952
0.005219828585313435      688.2873059219861
0.005421044586718146      688.0300907461416
0.0056225210022172924     687.7692542700617
0.005824517268584787      687.5047964937462
0.006027290827249049      687.2367174171952
0.006217890949519272      686.9580304514263
0.006407844130704021      686.6962583881631
0.0065973647866391935     686.4514012274062
0.00678666880286996       686.2234589691551
0.006975972806121895      686.0124316134101
0.007165493423165078      685.8183191601711
0.007355446539677438      685.6411216094381
0.007546046571713631      685.4808389612111
0.00770633524869351       685.3600765063012
0.007866237248851195      685.2553258260812
0.008025880956992212      685.1665869205511
0.008185395381580456      685.0938597897108
0.008344909844757132      685.0371444335603
0.008504553668569658      684.9964408520997
0.008664455861201733      684.971749045329
0.008824744806995652      684.9630690132481
0.008985029143401957      684.971386389001
0.009144928762683142      685.0000919875046
0.009304571537041926      685.0491858087591
0.009464085956369179      685.1186678527645
0.00962360082072762       685.2085381195205
0.009783244929102828      685.3187966090275
0.009943146768167231      685.4494433212851
0.010103434204802428      685.6004782562936
0.010294032985212885      685.7707755698966
0.010483984610427306      685.9596023161456
0.01067350371534381       686.1669584950407
0.010862806406064813      686.3928441065817
0.011052109529861487      686.6372591507686
0.011241629932518437      686.9002036276015
0.011431583715703804      687.1816775370803
0.011622185507008923      687.4816808792051
0.011824959091632737      687.7795997917675
0.012026955383669057      688.0704298544089
0.012228431824642762      688.354171067129
0.01242964785142546       688.6308234299278
0.012630863908182311      688.9003869428054
0.012832340438962243      689.1628616057618
0.01303433688029038       689.418247418797
0.013237110673121513      689.6665443819111
0.013439884439981065      689.8972715224852
0.013641880855631786      690.1099049563111
0.013843357360932049      690.3044446833885
0.014044573392309304      690.4808907037178
0.014245789393714157      690.6392430172988
0.014447265809213447      690.7795016241314
0.014649262075581083      690.9016665242157
0.01485203563424549       691.0057377175517
0.015042635756515686      691.0915058555736
0.015232588937700405      691.1619732925168
0.015422109593635547      691.2171400283817
0.015611413609866287      691.257006063168
0.015800717613118194      691.2815713968757
0.01599023823016135       691.290836029505
0.01618019134667368       691.2847999610557
0.016370791378709844      691.2634631915279
0.016531080055689654      691.2215783106084
0.01669098205584727       691.1763436602812
0.016850625763988217      691.1277592405464
0.017010140188576394      691.0758250514041
0.017169654651752998      691.0205410928542
0.017329298475565455      690.9619073648967
0.017489200668197463      690.8999238675316
0.01764948961399131       690.8345906007588
0.01780977395039525       690.7414596729506
0.017969673569674088      690.6376028943209
0.018129316344030533      690.5230202648701
0.01828883076335545       690.3977117845981
0.01844834562771156       690.2616774535046
0.01860798973608443       690.11491727159
0.018767891575146484      689.9574312388539
0.018928179011779317      689.7892193552966
0.019118777792188433      689.5307989223035
0.019308729417401523      689.2518977367116
0.019498248522316707      688.9525157985216
0.019687551213036395      688.632653107733
0.019876854336831753      688.2923096643459
0.02006637473948738       687.9314854683602
0.020256328522671414      687.5501805197761
0.020446930313975188      687.1483948185935
0.02064970389860279       686.6744196919956
0.02085170019064286       686.1886104001323
0.02105317663162028       685.6909669430038
0.02125439265840668       685.18148932061
0.021455608715167235      684.6601775329508
0.02165708524595088       684.1270315800263
0.021859081687282764      683.5820514618364
0.02206185548011769       683.0252371783812
0.022264629246980954      682.4776425889124
0.022466625662635346      681.9409588841687
0.022668102167939252      681.4151860641505
0.022869318199320136      680.9003241288574
0.023070534200728618      680.3963730782896
0.023272010616231548      679.903332912447
0.023474006882602858      679.4212036313296
0.02367678044127098       678.9499852349375
0.02386738056353977       678.4960463293997
0.024057333744723106      678.0738040725198
0.02424685440065687       677.683258464297
0.024436158416886237      677.3244095047318
0.02462546242013677       676.997257193824
0.024814983037178547      676.7018015315738
0.025004936153689494      676.438042517981
0.025195536185724256      676.2059801530457
0.0253558248627017        676.0041781130552
0.025515726862856965      675.8295293882638
0.025675370570995573      675.6820339786715
0.02583488499558142       675.561691884278
0.02599439945875569       675.4685031050839
0.02615404328256581       675.4024676410887
0.026313945475195465      675.3635854922926
0.026474234420986946      675.3518566586956
0.026634518757392422      675.3613526810854
0.02679441837667279       675.3946049264133
0.026954061151030752      675.4516133946794
0.02711357557035719       675.5323780858835
0.027273090434714816      675.6368990000258
0.027432734543089202      675.7651761371063
0.027592636382152785      675.9172094971249
0.02775292381878715       676.0929990800815
0.02794352259919713       676.3091846265534
0.02813347422441108       676.5556795195411
0.028322993329327112      676.8324837590446
0.028512296020047647      677.1395973450643
0.02870159914384385       677.4770202775998
0.028891119546500334      677.844752556651
0.02908107332968523       678.2427941822182
0.029271675120989875      678.6711451543013
0.02947444870561504       679.1441400045544
0.029676444997652693      679.626816632429
0.02987792143862772       680.1191750379251
0.030079137465411736      680.6212152210427
0.030280353522169904      681.1329371817817
0.030481830052951155      681.6543409201422
0.030683826494280624      682.1854264361242
0.030886600287113104      682.7261937297277
0.03108937405397396       683.260220557668
0.03129137046962597       683.7888380649761
0.03149284697492751       684.3120462516516
0.03169406300630604       684.8298451176951
0.03189527900771217       685.3422346631061
0.03209675542321274       685.8492148878848
0.03229875168958166       686.3507857920312
0.03250152524824737       686.8469473755453
0.03269212537051706       687.2480306025246
0.03288207855170127       687.627025792812
0.033071599207635916      687.9839329464074
0.033260903223866156      688.3187520633107
0.033450207227117564      688.6314831435219
0.033639727844160215      688.9221261870412
0.03382968096067204       689.1906811938684
0.034020280992707694      689.4371481640035
0.034180569669686675      689.6150248090504
0.03434047166984347       689.7811391319798
0.0345001153779836        689.9354911327922
0.03465962980257096       690.078080811487
0.03481914426574675       690.2089081680646
0.034978788089558385      690.3279732025248
0.03513869028218957       690.4352759148678
0.035298979227982585      690.5308163050935
