% Model:              brazing.mph
% Version:            COMSOL 5.3.0.223
% Date:               Oct 24 2018, 06:10
% Dimension:          1
% Nodes:              145
% Expressions:        1
% Description:        Line graph
% x                       Height
0                         855.4790535321853
1.8037553861809572E-4     855.7398160478648
3.5951128344368776E-4     855.9459325011916
5.377561773732229E-4      856.0974028921663
7.154644111300318E-4      856.1942272207883
8.929933875627798E-4      856.2364054870583
0.0010707015910786408     856.2239376909757
0.0012489464247083767     856.1568238325405
0.0014280820795340731     856.0350639117529
0.0016084574989771061     855.8586579286131
0.0017793134314883058     855.7854123527715
0.0019491114898538484     855.687678146816
0.002118149876008701      855.5654553107473
0.0022867308232763497     855.4187438445653
0.002455159027530182      855.2475437482693
0.0026237400128558564     855.05185502186
0.0027927784749207734     854.8316776653368
0.0029625766466419693     854.5870116787004
0.0031334327293582195     854.3178570619503
0.0033042867504275058     854.1384586106966
0.0034740828875811486     853.9546377828873
0.0036431193341009516     853.7663945785229
0.0038116983146850476     853.5737289976033
0.003980124516686077      853.376641040128
0.004148703455848711      853.1751307060975
0.004317739819749776      852.9691979955118
0.004487535833529769      852.7588429083704
0.004658389691119368      852.544065444674
0.0048387629974717405     852.4242157042282
0.005017896580971026      852.3094186886248
0.005196139373513023      852.199674397864
0.0053738455543625        852.0949828319457
0.005551372514551955      851.9953439908699
0.005729078726427549      851.9007578746367
0.005907321580834967      851.8112244832458
0.006086455256670912      851.7267438166974
0.006266828685292636      851.6473158749917
0.0064472042239161545     851.8070654683119
0.0066263399687470585     851.9750400058095
0.00680458486268183       852.1512394874854
0.0069822930964438265     852.3356639133391
0.007159822072881748      852.5283132833705
0.007337530276402798      852.7291875975801
0.007515775110037768      852.9382868559675
0.007694910764868775      853.1556110585326
0.007875286184317232      853.3811602052757
0.008046142116827224      853.6643140027983
0.008215940175191578      853.9391540061973
0.008384978561345261      854.2056802154733
0.008553559508611747      854.4638926306262
0.008721987712864422      854.7137912516556
0.008890568698188937      854.9553760785622
0.00905960716025268       855.1886471113454
0.009229405331972688      855.4136043500054
0.009400261414687729      855.630247794542
0.009571115435747398      855.9651436822543
0.009740911572891598      856.2698905033161
0.009909948019402086      856.544488257728
0.010078526999976944      856.7889369454894
0.010246953201968763      857.003236566601
0.010415532141122159      857.1873871210622
0.010584568505013912      857.3413886088732
0.010754364518784467      857.4652410300336
0.010925218376364454      857.5589443845444
0.011105591682722255      857.727688261855
0.01128472526622686       857.8498411815723
0.011462968058774099      857.925403143697
0.011640674239628768      857.954374148229
0.011818201199823401      857.9367541951677
0.01199590741170419       857.8725432845137
0.012174150266116847      857.7617414162665
0.012353283941958112      857.6043485904266
0.012533657370585264      857.4003648069937
0.01271403176453574       857.3705642833023
0.012893166387683227      857.2857430493667
0.013071410176518557      857.1459011051867
0.013249117315197753      856.9510384507624
0.013426645199902413      856.7011550860935
0.013604352308338922      856.3962510111809
0.01378259603687098       856.0363262260233
0.013961730570013379      855.6213807306218
0.014142104844781908      855.1514145249758
0.014312959944399205      854.7515940033198
0.014482757184992078      854.3275248168089
0.014651794764271453      853.8792069654434
0.014820374911240972      853.4066404492231
0.014988802317395246      852.9098252681478
0.01515738250242126       852.388761422218
0.015326420157607648      851.843448911433
0.015496217511551624      851.273887735793
0.015667072761367945      850.6800778952987
0.01583792791479403       850.166076847302
0.016007725163749622      849.6595049219665
0.01617676270725794       849.1603621192925
0.01634534277588875       848.6686484392798
0.016513770062946447      848.1843638819281
0.01668235009015449       847.707508447238
0.016851387551041475      847.2380821352091
0.017021184676619543      846.7760849458413
0.017192039666560827      846.3215168791352
0.017372413817338207      845.9460139609354
0.017551548228302124      845.5953394722673
0.017729791836073705      845.2694934131313
0.017907498824762332      844.9684757835272
0.018085026590318725      844.692286583455
0.018262733610032132      844.440925812915
0.018440977279666457      844.2143934719066
0.018620111782963036      844.0126895604302
0.018800486056004474      843.8358140784857
0.018980860449944497      843.9187420226034
0.019159995073081745      844.032225894964
0.019338238861906984      844.1762656955676
0.01951594600057618       844.3508614244141
0.019693473885270874      844.5560130815035
0.019871180993697383      844.7917206668357
0.020049424722219357      845.0579841804107
0.02022855925535152       845.3548036222286
0.0204089335301096        845.6821789922893
0.02057978862980686       846.0730700335993
0.020749585870478253      846.4657422783049
0.020918623449835097      846.8601957264074
0.021087203596881453      847.2564303779058
0.021255631003112355      847.6544462328005
0.021424211188215206      848.0542432910914
0.021593248843479067      848.4558215527785
0.021763046197501558      848.8591810178615
0.02193390144739785       849.2643216863411
0.022104756600747556      849.8247599157193
0.02227455384962815       850.3592300095648
0.02244359139306247       850.8677319678787
0.022612171461619885      851.3502657906603
0.022780598748604386      851.8068314779099
0.022949178775739036      852.2374290296274
0.02311821623655202       852.6420584458127
0.023288013362055097      853.0207197264659
0.023458868351919994      853.373412871587
0.02363924250270423       853.793444380225
0.023818376913674867      854.1669580300533
0.023996620521453065      854.4939538210721
0.02417432751014825       854.7744317532814
0.02435185527571118       855.0083918266813
0.024529562295431146      855.1958340412715
0.02470780596507209       855.3367583970524
0.024886940468375387      855.4311648940235
0.025067314741423676      855.4790535321853
