% Model:              brazing.mph
% Version:            COMSOL 5.3.0.223
% Date:               Oct 24 2018, 06:00
% Dimension:          1
% Nodes:              225
% Expressions:        1
% Description:        Line graph
% x                       Height
0                         794.1612692552418
2.3022181212578358E-4     793.9482639518898
4.5999325066962656E-4     793.7018562372031
6.894940081029028E-4      793.4220461111812
9.189044129547812E-4      793.1088335738244
0.001148405006736289      792.7622186251332
0.0013781761183620641     792.3822012651066
0.001608397441069865      791.9687814937453
0.001839314118928521      791.0953826466304
0.0020697760201574002     790.2194449549091
0.002299964597801726      789.3409684185823
0.0025300619515304015     788.4599530376496
0.0027602503975112853     787.5763988121113
0.0029907120357255193     786.6903057419667
0.003221628319839081      785.8016738272164
0.0034518885683530987     784.6691783779512
0.0036816980188178403     783.5172961337165
0.003911236592567028      782.3460270945128
0.004140684848157368      781.1553712603401
0.004370223557282477      779.9453286311983
0.004600033278179856      778.7158992070869
0.004830293931548535      777.4670829880066
0.005060048526376791      776.0374623697966
0.005289355629682316      774.6152469951907
0.005518393850920054      773.2004368641877
0.005747342428834         771.7930319767889
0.00597638081262499       770.3930323329943
0.006205688240655705      769.0004379328026
0.006435443321622868      767.615248776215
0.006665339619110656      766.1607098092903
0.006894787442849326      764.7256597212562
0.007123965728649401      763.310098512112
0.007353054043912613      761.9140261818578
0.007582232167524012      760.5374427304943
0.007811679667266285      759.1803481580204
0.008041575479707366      757.8427424644368
0.008271887219609135      756.5135377415394
0.008501747728772392      755.2264552703413
0.008731337046705121      753.981495050842
0.008960835851156599      752.7786570830418
0.009190425033567954      751.6179413669407
0.009420285272008154      750.4993479025384
0.009650596606620833      749.4228766898352
0.009881512912836019      748.3908832736967
0.010111974573021956      747.4203602207987
0.010342163040896366      746.5113075311417
0.010572260416492441      745.6637252047254
0.010802449016030204      744.8776132415505
0.011032910939230619      744.1529716416159
0.011263827639190652      743.4898004049224
0.011494048967061755      742.8659245274478
0.011723820083820682      742.3362657472285
0.011953320682717213      741.9008240642642
0.012182731092678062      741.559599478555
0.012412231855226382      741.3125919901013
0.012642003298903411      741.1598015989023
0.012872225116192546      741.1012283049587
0.013102446994778118      740.8725908936101
0.013332218499393473      740.7639574733968
0.01356171932266464       740.7753280443185
0.013791129793276359      740.906702606375
0.01402063045289555       741.1580811595669
0.014250401630592404      741.5294637038936
0.014480623019759359      742.0208502393555
0.014711539835704642      742.3235338303435
0.014942001874208778      742.7272789720291
0.015172190588640395      743.232085664412
0.01540228807899374       743.8379539074924
0.015632476661762654      744.5448837012706
0.015862938437253588      745.3528750457457
0.01609385485945594       746.2619279409184
0.016324115336228646      747.086046020437
0.016553925013622208      747.957628264902
0.016783463813500554      748.876674674313
0.017012912294953733      749.8431852486704
0.01724245123020976       750.8571599879741
0.01747226117803945       751.9185988922237
0.017702522059672054      753.0275019614197
0.017932276794613372      754.1590429043202
0.018161584037218948      755.3191572615514
0.018390622397267263      756.5078450331133
0.018619571113827754      757.7251062190063
0.018848609636427344      758.9709408192301
0.019077917203754128      760.2453488337845
0.019307672424828403      761.5483302626698
0.019537568573699274      762.7710707803875
0.01976701624968263       764.0055975508704
0.019996194388245302      765.2519105741184
0.020225282556443316      766.5100098501315
0.020454460532815345      767.7798953789098
0.02068390788479834       769.0615671604529
0.020913803548616574      770.3550251947614
0.02114411498977932       771.4446978705176
0.021373975201947604      772.5406249416045
0.02160356422393484       773.642806408022
0.02183306273279162       774.7512422697702
0.02206265161925901       775.8659325268494
0.02229251156070728       776.9868771792588
0.02252282259658549       778.1140762269994
0.022753738766914562      778.9142399654767
0.022984200292012823      779.7053101798086
0.023214388625279938      780.487286869995
0.023444485866429166      781.2601700360361
0.023674674331359946      782.0239596779323
0.023905136119473275      782.7786557956828
0.024136052683548088      783.5242583892881
0.024366274021741702      783.8639540693435
0.024596045148762867      784.1967744944528
0.024825545757885373      784.5227196646157
0.02505495617806012       784.8417895798322
0.02528445695083446       785.1539842401024
0.025514228404773787      785.4593036454263
0.025744450232385536      785.7577477958038
0.025974672267095825      785.6318188793044
0.026204443926923768      785.4823348490507
0.02643394490485871       785.3092957050434
0.02666335552995085       785.1127014472817
0.026892856344233315      784.8925520757658
0.02712262767714175       784.6488475904958
0.02735284922243193       784.381587991472
0.027583766528201624      783.6358676511148
0.027814229053652367      782.8774146611762
0.028044418253299775      782.1062290216563
0.02827451622829193       781.3223107325551
0.028504705296278778      780.5256597938732
0.028735167558720572      779.7162762056095
0.028966084470753738      778.8941599677647
0.029196345605491433      777.8637784651397
0.02942615593701711       776.7923479564989
0.02965569538872289       775.6798684418421
0.029885144521236064      774.5263399211702
0.030114684108324883      773.3317623944828
0.030344494710297387      772.0961358617793
0.030574756249911007      770.8194603230605
0.030804511377321087      769.4506517157564
0.031033819010118435      768.0677524590006
0.031262857758987544      766.6707625527935
0.03149180686390927       765.2596819971344
0.031720845775323685      763.8345107920242
0.031950153732830305      762.395248937462
0.032179909346355486      760.9418964334485
0.0324098051544111        759.5152220936965
0.032639252491552244      758.096230143702
0.03286843029245836       756.6849205834652
0.0330975181233935        755.281293412986
0.03332669576210278       753.8853486322647
0.03355614277523119       752.4970862413005
0.033786038098215655      751.1165062400943
0.034016348759356954      749.8045689613149
0.03424620819605658       748.5360929775306
0.034475796445315066      747.3110782887409
0.03470529418235937       746.1295248949461
0.03493488229610333       744.9914327961466
0.035164741462093585      743.8968019923416
0.03539505171796626       742.8456324835316
0.035625967353597694      741.8772892418797
0.03585642834714083       740.9803003227223
0.036086616150743635      740.1546657260598
0.03631671286286018       739.4003854518919
0.03654690079812825       738.7174595002192
0.036777362054689705      738.1058878710407
0.03700827808407173       737.5656705643573
0.03723849938140827       737.0971903437625
0.03746827046781093       736.7306979864545
0.03769777103645843       736.4661934924334
0.03792718141620601       736.3036768616992
0.0381566821485052        736.2431480942523
0.03838645356182577       736.284607190092
0.03861667534858004       736.4280541492187
0.038846895274787324      736.4719824351911
0.039076664838430766      736.6395937874473
0.03930616372759302       736.9308882059873
0.03953557226638858       737.3458656908114
0.039765070991905134      737.8845262419194
0.039994840228642616      738.5468698593111
0.040225059665450036      739.3328965429868
0.04045597761776665       740.005830794371
0.04068644078597457       740.7790528394022
0.04091663062609736       741.6525626780799
0.041146729240799984      742.6263603104047
0.04137691894925231       743.7004457363765
0.04160738185443156       744.8748189559948
0.04183829941298208       746.1494799692601
0.04206856149768976       747.380546889658
0.04229837277362926       748.6551305821209
0.04252791316640542       749.9732310466482
0.04275736323887129       751.3348482832401
0.04298690376702529       752.7399822918973
0.04321671531340127       754.1886330726185
0.04344697780296935       755.6808006254047
0.043676731016186174      757.2447914551286
0.04390603674591497       758.816829581512
0.04413507359840861       760.3969150045558
0.04436402080919017       761.9850477242595
0.044593057824233256      763.5812277406236
0.04482236387867965       765.1854550536472
0.045052117578024006      766.7977296633311
0.045282012653644836      768.4242551808815
0.045511459262636354      770.0250647548879
0.04574063633797325       771.6001583853505
0.04596972344420469       773.1495360722691
0.046198900357357554      774.6731978156446
0.046428346642361965      776.1711436154754
0.04665824123294997       777.6433734717629
0.04688855484177433       779.0294246004222
0.04711841720894409       780.3785896245212
0.04734800837831597       781.6908685440593
0.04757750903201372       782.9662613590366
0.047807100065861544      784.2047680694533
0.04803696216230292       785.4063886753091
0.04826727536583021       786.5711231766044
0.048498193048686675      787.5200950229536
0.048728656077441146      788.4251957545656
0.04895884590902903       789.28642537144
0.04918894464672031       790.1037838735773
0.04941913460997818       790.8772712609779
0.04964959790176041       791.6068875336406
0.04988051597838159       792.2926326915664
0.05011073543954296       792.634222480459
0.0503405047004922        792.9509316998957
0.05057000345013497       793.2427603498764
0.05079941201302823       793.5097084304015
0.05102891092631677       793.751775941471
0.05125868051417213       793.9689628830841
0.051488900464733596      794.1612692552418
