% Model:              brazing.mph
% Version:            COMSOL 5.3.0.223
% Date:               Oct 24 2018, 02:20
% Dimension:          1
% Nodes:              193
% Expressions:        1
% Description:        Line graph
% x                       Height
0                         644.5015222920489
1.6028433640637486E-4     644.5862100088627
3.201839556876346E-4      644.663065792941
4.7982673004648776E-4     644.7320896442835
6.393411493738095E-4      644.7932815628906
7.988560137323205E-4      644.8466415487619
9.58500122107595E-4       644.8921696018976
0.0011184019611720658     644.9298657222978
0.0012786893978073315     644.9597299099623
0.0014692881782178572     644.9837490527007
0.0016592398034323465     644.9911105113466
0.0018487589083489172     644.9818142859003
0.00203806159906999       644.9558603763616
0.0022273647228667317     644.9132487827303
0.0024168851255237504     644.8539795050068
0.002606838908709185      644.7780525431907
0.0027974407000143733     644.6854678972824
0.003000214284638094      644.5615939798944
0.0032022105766743216     644.4229641480368
0.003403687017647933      644.2695784017097
0.0036049030444305387     644.1014367409128
0.0038061191011872996     643.9185391656463
0.004007595631967136      643.7208856759102
0.00420959207329518       643.5084762717042
0.00441236586612622       643.2813109530288
0.004615139632985625      643.0275506834112
0.004817136048636202      642.770187559438
0.005018612553936322      642.509221581109
0.005219828585313435      642.2446527484244
0.005421044586718146      641.9764810613842
0.0056225210022172924     641.7047065199883
0.005824517268584787      641.4293291242368
0.006027290827249049      641.1503488741297
0.006217890949519272      640.8606799293447
0.006407844130704021      640.5886847011265
0.0065973647866391935     640.3343631894746
0.00678666880286996       640.0977153943895
0.006975972806121895      639.8787413158711
0.007165493423165078      639.6774409539192
0.007355446539677438      639.4938143085341
0.007546046571713631      639.3278613797156
0.00770633524869351       639.203047731585
0.007866237248851195      639.0950784293489
0.008025880956992212      639.0039534730072
0.008185395381580456      638.9296728625599
0.008344909844757132      638.8722365980071
0.008504553668569658      638.8316446793488
0.008664455861201733      638.807897106585
0.008824744806995652      638.8009938797156
0.008985029143401957      638.8121166356848
0.009144928762683142      638.8444618430527
0.009304571537041926      638.8980295018196
0.009464085956369179      638.9728196119851
0.00962360082072762       639.0688321735495
0.009783244929102828      639.1860671865128
0.009943146768167231      639.3245246508748
0.010103434204802428      639.4842045666356
0.010294032985212885      639.6654839759207
0.010483984610427306      639.8659540625675
0.01067350371534381       640.085614826576
0.010862806406064813      640.3244662679465
0.011052109529861487      640.5825083866787
0.011241629932518437      640.8597411827728
0.011431583715703804      641.1561646562288
0.011622185507008923      641.4717788070466
0.011824959091632737      641.7851534440903
0.012026955383669057      642.0912389027609
0.012228431824642762      642.3900351830583
0.01242964785142546       642.6815422849826
0.012630863908182311      642.9657602085338
0.012832340438962243      643.2426889537118
0.01303433688029038       643.5123285205166
0.013237110673121513      643.7746789089483
0.013439884439981065      644.0166319258625
0.013641880855631786      644.2395525138987
0.013843357360932049      644.4434406730569
0.014044573392309304      644.6282964033371
0.014245789393714157      644.7941197047393
0.014447265809213447      644.9409105772635
0.014649262075581083      645.0686690209096
0.01485203563424549       645.1773950356778
0.015042635756515686      645.2662141795076
0.015232588937700405      645.3386237024462
0.015422109593635547      645.394623604493
0.015611413609866287      645.4342138856484
0.015800717613118194      645.4573945459124
0.01599023823016135       645.4641655852848
0.01618019134667368       645.4545270037657
0.016370791378709844      645.4284788013551
0.016531080055689654      645.3814292239169
0.01669098205584727       645.3303184510454
0.016850625763988217      645.2751464827409
0.017010140188576394      645.215913319003
0.017169654651752998      645.1526189598319
0.017329298475565455      645.0852634052275
0.017489200668197463      645.0138466551899
0.01764948961399131       644.938368709719
0.01780977395039525       644.8343402467306
0.017969673569674088      644.7186362559601
0.018129316344030533      644.5912567374074
0.01828883076335545       644.4522016910728
0.01844834562771156       644.301471116956
0.01860798973608443       644.1390650150572
0.018767891575146484      643.9649833853763
0.018928179011779317      643.7792262279132
0.019118777792188433      643.4998683311029
0.019308729417401523      643.1989210835496
0.019498248522316707      642.8763844852533
0.019687551213036395      642.532258536214
0.019876854336831753      642.1665432364317
0.02006637473948738       641.7792385859065
0.020256328522671414      641.3703445846381
0.020446930313975188      640.9398612326269
0.02064970389860279       640.4301462593832
0.02085170019064286       639.9080995211301
0.02105317663162028       639.3737210178678
0.02125439265840668       638.827010749596
0.021455608715167235      638.2679687163148
0.02165708524595088       637.6965949180244
0.021859081687282764      637.1128893547246
0.02206185548011769       636.5168520264154
0.022264629246980954      635.9276649935812
0.022466625662635346      635.3503731184214
0.022668102167939252      634.7849764009362
0.022869318199320136      634.2314748411254
0.023070534200728618      633.6898684389892
0.023272010616231548      633.1601571945273
0.023474006882602858      632.64234110774
0.02367678044127098       632.1364201786272
0.02386738056353977       631.6496324539281
0.024057333744723106      631.1965426465891
0.02424685440065687       630.7771507566098
0.024436158416886237      630.3914567839905
0.02462546242013677       630.0394607287311
0.024814983037178547      629.7211625908317
0.025004936153689494      629.4365623702922
0.025195536185724256      629.1856600671126
0.0253558248627017        628.9686964483056
0.025515726862856965      628.7805938982816
0.025675370570995573      628.6213524170399
0.02583488499558142       628.4909720045811
0.02599439945875569       628.3894526609048
0.02615404328256581       628.3167943860111
0.026313945475195465      628.2729971799002
0.026474234420986946      628.2580610425719
0.026634518757392422      628.2660663957313
0.02679441837667279       628.2994457363556
0.026954061151030752      628.3581990644441
0.02711357557035719       628.4423263799973
0.027273090434714816      628.5518276830152
0.027432734543089202      628.6867029734974
0.027592636382152785      628.8469522514443
0.02775292381878715       629.0325755168558
0.02794352259919713       629.2621350459723
0.02813347422441108       629.5241189706379
0.028322993329327112      629.8185272908526
0.028512296020047647      630.1453600066164
0.02870159914384385       630.5046171179293
0.028891119546500334      630.8962986247914
0.02908107332968523       631.3204045272026
0.029271675120989875      631.7769348251629
0.02947444870561504       632.2794843277044
0.029676444997652693      632.7930200550825
0.02987792143862772       633.3175420072972
0.030079137465411736      633.8530501843486
0.030280353522169904      634.3995445862365
0.030481830052951155      634.9570252129612
0.030683826494280624      635.5254920645224
0.030886600287113104      636.1049451409202
0.03108937405397396       636.6756587148617
0.03129137046962597       637.2407053290722
0.03149284697492751       637.8000849835519
0.03169406300630604       638.3537976783003
0.03189527900771217       638.9018434133179
0.03209675542321274       639.4442221886045
0.03229875168958166       639.98093400416
0.03250152524824737       640.5119788599845
0.03269212537051706       640.9422349430143
0.03288207855170127       641.3492635201657
0.033071599207635916      641.7330645914388
0.033260903223866156      642.0936381568335
0.033450207227117564      642.4309842163499
0.033639727844160215      642.7451027699877
0.03382968096067204       643.0359938177473
0.034020280992707694      643.3036573596285
0.034180569669686675      643.4973289822434
0.03434047166984347       643.6784467459831
0.0345001153779836        643.8470106508482
0.03465962980257096       644.0030206968382
0.03481914426574675       644.1464768839534
0.034978788089558385      644.2773792121934
0.03513869028218957       644.3957276815587
0.035298979227982585      644.5015222920489
