% Model:              brazing.mph
% Version:            COMSOL 5.3.0.223
% Date:               Oct 24 2018, 03:49
% Dimension:          1
% Nodes:              225
% Expressions:        1
% Description:        Line graph
% x                       Height
0                         711.4107272973465
2.3022181212578358E-4     711.2477789713323
4.5999325066962656E-4     711.0547754543293
6.894940081029028E-4      710.8317167463372
9.189044129547812E-4      710.578602847356
0.001148405006736289      710.2954337573865
0.0013781761183620641     709.9822094764276
0.001608397441069865      709.63893000448
0.001839314118928521      708.8757940102162
0.0020697760201574002     708.1137270884577
0.002299964597801726      707.3527292392047
0.0025300619515304015     706.5928004624571
0.0027602503975112853     705.8339407582156
0.0029907120357255193     705.0761501264791
0.003221628319839081      704.3194285672485
0.0034518885683530987     703.3371084401532
0.0036816980188178403     702.3423943137221
0.003911236592567028      701.3352861879555
0.004140684848157368      700.315784062853
0.004370223557282477      699.2838879384154
0.004600033278179856      698.2395978146418
0.004830293931548535      697.1829136915328
0.005060048526376791      695.9402778098538
0.005289355629682316      694.7083881823758
0.005518393850920054      693.4872448090983
0.005747342428834         692.2768476900218
0.00597638081262499       691.0771968251462
0.006205688240655705      689.8882922144711
0.006435443321622868      688.7101338579969
0.006665339619110656      687.4543574850192
0.006894787442849326      686.2189843293911
0.007123965728649401      685.0040143911125
0.007353054043912613      683.8094476701833
0.007582232167524012      682.6352841666038
0.007811679667266285      681.4815238803735
0.008041575479707366      680.348166811493
0.008271887219609135      679.2127646606334
0.008501747728772392      678.1157393295831
0.008731337046705121      677.0570908183423
0.008960835851156599      676.0368191269112
0.009190425033567954      675.0549242552896
0.009420285272008154      674.1114062034774
0.009650596606620833      673.2062649714748
0.009881512912836019      672.3347227956322
0.010111974573021956      671.517351207746
0.010342163040896366      670.7541502078154
0.010572260416492441      670.0451197958411
0.010802449016030204      669.3902599718231
0.011032910939230619      668.7895707357609
0.011263827639190652      668.2430520876549
0.011494048967061755      667.7251968712352
0.011723820083820682      667.2904389087621
0.011953320682717213      666.9387782002353
0.012182731092678062      666.6702147456549
0.012412231855226382      666.4847485450213
0.012642003298903411      666.3823795983336
0.012872225116192546      666.3631079055926
0.013102446994778118      666.1852733024322
0.013332218499393473      666.1135654780373
0.01356171932266464       666.1479844324082
0.013791129793276359      666.2885301655447
0.01402063045289555       666.5352026774469
0.014250401630592404      666.8880019681145
0.014480623019759359      667.3469280375479
0.014711539835704642      667.626047471066
0.014942001874208778      667.9953090867738
0.015172190588640395      668.4547128846707
0.01540228807899374       669.004258864757
0.015632476661762654      669.643947027033
0.015862938437253588      670.3737773714981
0.01609385485945594       671.1937498981529
0.016324115336228646      671.926975182088
0.016553925013622208      672.7031113863831
0.016783463813500554      673.5221585110376
0.017012912294953733      674.3841165560518
0.01724245123020976       675.2889855214262
0.01747226117803945       676.2367654071599
0.017702522059672054      677.2274562132535
0.017932276794613372      678.2272632322098
0.018161584037218948      679.2543247744128
0.018390622397267263      680.3086408398627
0.018619571113827754      681.3902114285594
0.018848609636427344      682.4990365405032
0.019077917203754128      683.6351161756935
0.019307672424828403      684.7984503341308
0.019537568573699274      685.8713115760404
0.01976701624968263       686.958617796904
0.019996194388245302      688.0603689967218
0.020225282556443316      689.1765651754937
0.020454460532815345      690.3072063332199
0.02068390788479834       691.4522924698999
0.020913803548616574      692.6118235855344
0.02114411498977932       693.5607750298386
0.021373975201947604      694.5204713452176
0.02160356422393484       695.4909125316714
0.02183306273279162       696.4720985892
0.02206265161925901       697.4640295178036
0.02229251156070728       698.4667053174816
0.02252282259658549       699.4801259882346
0.022753738766914562      700.1634596816368
0.022984200292012823      700.844569555277
0.023214388625279938      701.5234556091548
0.023444485866429166      702.2001178432707
0.023674674331359946      702.8745562576247
0.023905136119473275      703.5467708522162
0.024136052683548088      704.2167616270458
0.024366274021741702      704.4798760518376
0.024596045148762867      704.7414701984112
0.024825545757885373      705.0015440667663
0.02505495617806012       705.2600976569029
0.02528445695083446       705.5171309688214
0.025514228404773787      705.7726440025211
0.025744450232385536      706.0266367580028
0.025974672267095825      705.8944186242632
0.026204443926923768      705.7399656602968
0.02643394490485871       705.5632778661035
0.02666335552995085       705.3643552416835
0.026892856344233315      705.1431977870367
0.02712262767714175       704.8998055021628
0.02735284922243193       704.6341783870622
0.027583766528201624      703.9383679798451
0.027814229053652367      703.2326602600492
0.028044418253299775      702.5170552276746
0.02827451622829193       701.791552882721
0.028504705296278778      701.0561532251891
0.028735167558720572      700.3108562550777
0.028966084470753738      699.555661972388
0.029196345605491433      698.6203835633997
0.02942615593701711       697.650768592896
0.02965569538872289       696.6468170608769
0.029885144521236064      695.6085289673418
0.030114684108324883      694.5359043122918
0.030344494710297387      693.4289430957257
0.030574756249911007      692.2876453176443
0.030804511377321087      691.0535377733626
0.031033819010118435      689.8090597784314
0.031262857758987544      688.5542113328504
0.03149180686390927       687.2889924366199
0.031720845775323685      686.0134030897403
0.031950153732830305      684.7274432922108
0.032179909346355486      683.4311130440319
0.0324098051544111        682.1530715948012
0.032639252491552244      680.8832030528473
0.03286843029245836       679.62150741817
0.0330975181233935        678.3679846907695
0.03332669576210278       677.1226348706462
0.03355614277523119       675.8854579577992
0.033786038098215655      674.6564539522292
0.034016348759356954      673.4856573196305
0.03424620819605658       672.3531537097956
0.034475796445315066      671.2589431227244
0.03470529418235937       670.2030255584173
0.03493488229610333       669.1854010168744
0.035164741462093585      668.2060694980947
0.03539505171796626       667.2650310020794
0.035625967353597694      666.3954729562691
0.03585642834714083       665.5881092544546
0.036086616150743635      664.8429398966355
0.03631671286286018       664.1599648828121
0.03654690079812825       663.5391842129847
0.036777362054689705      662.9805978871524
0.03700827808407173       662.484205905316
0.03723849938140827       662.0480112503229
0.03746827046781093       661.7019225076006
0.03769777103645843       661.4459396771488
0.03792718141620601       661.280062758968
0.0381566821485052        661.2042917530581
0.03838645356182577       661.2186266594188
0.03861667534858004       661.3230674780503
0.038846895274787324      661.3269953249804
0.039076664838430766      661.4416707913024
0.03930616372759302       661.6670938770161
0.03953557226638858       662.0032645821216
0.039765070991905134      662.4501829066189
0.039994840228642616      663.0078488505078
0.040225059665450036      663.6762624137887
0.04045597761776665       664.228002635827
0.04068644078597457       664.870358956592
0.04091663062609736       665.6033313760831
0.041146729240799984      666.4269198943008
0.04137691894925231       667.3411245112451
0.04160738185443156       668.3459452269154
0.04183829941298208       669.4413820413123
0.04206856149768976       670.4860375969253
0.04229837277362926       671.5704943144405
0.04252791316640542       672.6947521938581
0.04275736323887129       673.8588112351781
0.04298690376702529       675.0626714384009
0.04321671531340127       676.3063328035256
0.04344697780296935       677.589795330553
0.043676731016186174      678.935543243496
0.04390603674591497       680.2902177799685
0.04413507359840861       681.6538189399699
0.04436402080919017       683.0263467235005
0.044593057824233256      684.4078011305606
0.04482236387867965       685.7981821611494
0.045052117578024006      687.1974898152675
0.045282012653644836      688.6050960324835
0.045511459262636354      689.9936201447449
0.04574063633797325       691.3630621520517
0.04596972344420469       692.7134220544041
0.046198900357357554      694.044699851802
0.046428346642361965      695.3568955442448
0.04665824123294997       696.6500091317334
0.04688855484177433       697.8557487842209
0.04711841720894409       699.0341730586617
0.04734800837831597       700.185281955056
0.04757750903201372       701.3090754734036
0.047807100065861544      702.405553613705
0.04803696216230292       703.4747163759594
0.04826727536583021       704.5165637601674
0.048498193048686675      705.3449688827276
0.048728656077441146      706.1416796476167
0.04895884590902903       706.9066960548346
0.04918894464672031       707.6400181043814
0.04941913460997818       708.3416457962572
0.04964959790176041       709.0115791304615
0.04988051597838159       709.649818106995
0.05011073543954296       709.9494571106438
0.0503405047004922        710.2330692649979
0.05057000345013497       710.5006545700572
0.05079941201302823       710.7522130258216
0.05102891092631677       710.9877446322917
0.05125868051417213       711.2072493894664
0.051488900464733596      711.4107272973465
