% Model:              brazing.mph
% Version:            COMSOL 5.3.0.223
% Date:               Oct 24 2018, 05:28
% Dimension:          1
% Nodes:              193
% Expressions:        1
% Description:        Line graph
% x                       Height
0                         686.1947021690786
1.6028433640637486E-4     686.2677692464566
3.201839556876346E-4      686.333642586999
4.7982673004648776E-4     686.3923221907061
6.393411493738095E-4      686.4438080575774
7.988560137323205E-4      686.4881001876132
9.58500122107595E-4       686.5251985808135
0.0011184019611720658     686.5551032371782
0.0012786893978073315     686.5778141567073
0.0014692881782178572     686.5932416518958
0.0016592398034323465     686.5919964338017
0.0018487589083489172     686.5740785024245
0.00203806159906999       686.5394878577645
0.0022273647228667317     686.4882244998216
0.0024168851255237504     686.420288428596
0.002606838908709185      686.3356796440873
0.0027974407000143733     686.2343981462959
0.003000214284638094      686.1033482487582
0.0032022105766743216     685.957689957678
0.003403687017647933      685.7974232730554
0.0036049030444305387     685.6225481948903
0.0038061191011872996     685.4330647231831
0.004007595631967136      685.2289728579333
0.00420959207329518       685.0102725991411
0.00441236586612622       684.7769639468065
0.004615139632985625      684.5160894797801
0.004817136048636202      684.2513829166635
0.005018612553936322      683.9828442574568
0.005219828585313435      683.7104735021599
0.005421044586718146      683.4342706507729
0.0056225210022172924     683.1542357032956
0.005824517268584787      682.8703686597283
0.006027290827249049      682.5826695200709
0.006217890949519272      682.2834713643605
0.006407844130704021      682.0026907567265
0.0065973647866391935     681.7403276971692
0.00678666880286996       681.4963821856886
0.006975972806121895      681.2708542222847
0.007165493423165078      681.0637438069573
0.007355446539677438      680.8750509397067
0.007546046571713631      680.7047756205327
0.00770633524869351       680.5775575922876
0.007866237248851195      680.4674640084677
0.008025880956992212      680.3744948690733
0.008185395381580456      680.2986501741042
0.008344909844757132      680.2399299235603
0.008504553668569658      680.1983341174418
0.008664455861201733      680.1738627557488
0.008824744806995652      680.166515838481
0.008985029143401957      680.1782882616042
0.009144928762683142      680.2120244425632
0.009304571537041926      680.2677243813582
0.009464085956369179      680.3453880779892
0.00962360082072762       680.4450155324562
0.009783244929102828      680.5666067447589
0.009943146768167231      680.7101617148978
0.010103434204802428      680.8756804428725
0.010294032985212885      681.0621945608528
0.010483984610427306      681.2688153064017
0.01067350371534381       681.4955426795192
0.010862806406064813      681.7423766802051
0.011052109529861487      682.0093173084597
0.011241629932518437      682.2963645642827
0.011431583715703804      682.6035184476743
0.011622185507008923      682.9307789586346
0.011824959091632737      683.2569799219951
0.012026955383669057      683.5753786220315
0.012228431824642762      683.8859750587438
0.01242964785142546       684.1887692321321
0.012630863908182311      684.4837611421964
0.012832340438962243      684.7709507889368
0.01303433688029038       685.050338172353
0.013237110673121513      685.3219232924453
0.013439884439981065      685.5744236828316
0.013641880855631786      685.8074201237506
0.013843357360932049      686.020912615202
0.014044573392309304      686.2149011571859
0.014245789393714157      686.3893857497022
0.014447265809213447      686.5443663927512
0.014649262075581083      686.6798430863325
0.01485203563424549       686.7958158304465
0.015042635756515686      686.8933222451187
0.015232588937700405      686.9744593784303
0.015422109593635547      687.0392272303814
0.015611413609866287      687.0876258009721
0.015800717613118194      687.1196550902023
0.01599023823016135       687.1353150980719
0.01618019134667368       687.1346058245811
0.016370791378709844      687.1175272697297
0.016531080055689654      687.0775710652985
0.01669098205584727       687.0345299674708
0.016850625763988217      686.9884039762472
0.017010140188576394      686.9391930916277
0.017169654651752998      686.8868973136119
0.017329298475565455      686.8315166422
0.017489200668197463      686.7730510773921
0.01764948961399131       686.7115006191881
0.01780977395039525       686.6183658162932
0.017969673569674088      686.5139286893035
0.018129316344030533      686.3981892382188
0.01828883076335545       686.2711474630395
0.01844834562771156       686.1328033637652
0.01860798973608443       685.983156940396
0.018767891575146484      685.8222081929322
0.018928179011779317      685.6499571213733
0.019118777792188433      685.3796581423596
0.019308729417401523      685.0871652991527
0.019498248522316707      684.7724785917528
0.019687551213036395      684.4355980201601
0.019876854336831753      684.0765235843743
0.02006637473948738       683.6952552843954
0.020256328522671414      683.2917931202236
0.020446930313975188      682.8661370918587
0.02064970389860279       682.36516648482
0.02085170019064286       681.8513260330719
0.02105317663162028       681.3246157366146
0.02125439265840668       680.785035595448
0.021455608715167235      680.232585609572
0.02165708524595088       679.6672657789867
0.021859081687282764      679.089076103692
0.02206185548011769       678.4980165836881
0.022264629246980954      677.9174206595545
0.022466625662635346      677.34801504575
0.022668102167939252      676.7897997422748
0.022869318199320136      676.2427747491286
0.023070534200728618      675.7069400663116
0.023272010616231548      675.1822956938238
0.023474006882602858      674.6688416316653
0.02367678044127098       674.1665778798358
0.02386738056353977       673.6829228559316
0.024057333744723106      673.2328970348158
0.02424685440065687       672.8165004164882
0.024436158416886237      672.433733000949
0.02462546242013677       672.0845947881982
0.024814983037178547      671.7690857782355
0.025004936153689494      671.4872059710613
0.025195536185724256      671.2389553666752
0.0253558248627017        671.0228900700054
0.025515726862856965      670.8355086677865
0.025675370570995573      670.6768111600186
0.02583488499558142       670.5467975467017
0.02599439945875569       670.4454678278358
0.02615404328256581       670.3728220034209
0.026313945475195465      670.3288600734571
0.026474234420986946      670.3135820379442
0.026634518757392422      670.3218937537691
0.02679441837667279       670.3551162805805
0.026954061151030752      670.4132496183782
0.02711357557035719       670.4962937671626
0.027273090434714816      670.6042487269333
0.027432734543089202      670.7371144976903
0.027592636382152785      670.8948910794339
0.02775292381878715       671.0775784721639
0.02794352259919713       671.3034933083342
0.02813347422441108       671.5615662611768
0.028322993329327112      671.8517973306915
0.028512296020047647      672.1741865168784
0.02870159914384385       672.5287338197376
0.028891119546500334      672.915439239269
0.02908107332968523       673.3343027754725
0.029271675120989875      673.7853244283483
0.02947444870561504       674.2848858676517
0.029676444997652693      674.794283390769
0.02987792143862772       675.3135169977005
0.030079137465411736      675.8425866884459
0.030280353522169904      676.3814924630052
0.030481830052951155      676.9302343213784
0.030683826494280624      677.4888122635657
0.030886600287113104      678.0572262895669
0.03108937405397396       678.6177027462703
0.03129137046962597       679.1723061595859
0.03149284697492751       679.7210365295131
0.03169406300630604       680.2638938560523
0.03189527900771217       680.8008781392033
0.03209675542321274       681.3319893789661
0.03229875168958166       681.857227575341
0.03250152524824737       682.3765927283276
0.03269212537051706       682.7981414625128
0.03288207855170127       683.1957923208163
0.033071599207635916      683.5695453032383
0.033260903223866156      683.9194004097787
0.033450207227117564      684.2453576404375
0.033639727844160215      684.5474169952148
0.03382968096067204       684.8255784741106
0.034020280992707694      685.0798420771247
0.034180569669686675      685.2619829843776
0.03434047166984347       685.4319000642707
0.0345001153779836        685.5895933168046
0.03465962980257096       685.7350627419786
0.03481914426574675       685.8683083397931
0.034978788089558385      685.9893301102478
0.03513869028218957       686.098128053343
0.035298979227982585      686.1947021690786
