% Model:              brazing.mph
% Version:            COMSOL 5.3.0.223
% Date:               Oct 24 2018, 06:09
% Dimension:          1
% Nodes:              145
% Expressions:        1
% Description:        Line graph
% x                       Height
0                         687.7416417889884
1.8037553861809572E-4     688.0091200316521
3.5951128344368776E-4     688.2213203987011
5.377561773732229E-4      688.3782428901364
7.154644111300318E-4      688.4798875059574
8.929933875627798E-4      688.5262542461643
0.0010707015910786408     688.5173431107571
0.0012489464247083767     688.4531540997355
0.0014280820795340731     688.3336872130998
0.0016084574989771061     688.15894245085
0.0017793134314883058     688.0916729786185
0.0019491114898538484     687.9991626114589
0.002118149876008701      687.8814113493719
0.0022867308232763497     687.7384191923569
0.002455159027530182      687.5701861404141
0.0026237400128558564     687.3767121935434
0.0027927784749207734     687.1579973517448
0.0029625766466419693     686.9140416150186
0.0031334327293582195     686.6448449833644
0.0033042867504275058     686.4702227928955
0.0034740828875811486     686.2898793768916
0.0036431193341009516     686.1038147353529
0.0038116983146850476     685.9120288682792
0.003980124516686077      685.7145217756705
0.004148703455848711      685.511293457527
0.004317739819749776      685.3023439138484
0.004487535833529769      685.0876731446348
0.004658389691119368      684.8672811498864
0.0048387629974717405     684.7460127393689
0.005017896580971026      684.6284404130955
0.005196139373513023      684.5145641710667
0.0053738455543625        684.404384013282
0.005551372514551955      684.2978999397417
0.005729078726427549      684.1951119504457
0.005907321580834967      684.0960200453941
0.006086455256670912      684.0006242245865
0.006266828685292636      683.9089244880237
0.0064472042239161545     684.0608037426239
0.0066263399687470585     684.2198397791545
0.00680458486268183       684.3860325976162
0.0069822930964438265     684.5593821980085
0.007159822072881748      684.7398885803316
0.007337530276402798      684.9275517445852
0.007515775110037768      685.1223716907697
0.007694910764868775      685.3243484188847
0.007875286184317232      685.5334819289307
0.008046142116827224      685.8045925141934
0.008215940175191578      686.0666269511214
0.008384978561345261      686.319585239715
0.008553559508611747      686.5634673799741
0.008721987712864422      686.7982733718985
0.008890568698188937      687.0240032154886
0.00905960716025268       687.2406569107438
0.009229405331972688      687.4482344576647
0.009400261414687729      687.6467358562511
0.009571115435747398      687.9683909100703
0.009740911572891598      688.2598093347051
0.009909948019402086      688.5209911301563
0.010078526999976944      688.7519362964233
0.010246953201968763      688.9526448335063
0.010415532141122159      689.123116741405
0.010584568505013912      689.26335202012
0.010754364518784467      689.3733506696507
0.010925218376364454      689.4531126899975
0.011105591682722255      689.6149317313123
0.01128472526622686       689.7301679551457
0.011462968058774099      689.7988213614985
0.011640674239628768      689.8208919503703
0.011818201199823401      689.7963797217611
0.01199590741170419       689.725284675671
0.012174150266116847      689.6076068120999
0.012353283941958112      689.4433461310477
0.012533657370585264      689.2325026325148
0.01271403176453574       689.2051955281718
0.012893166387683227      689.1228517748009
0.013071410176518557      688.9854713724025
0.013249117315197753      688.7930543209761
0.013426645199902413      688.545600620522
0.013604352308338922      688.2431102710402
0.01378259603687098       687.8855832725305
0.013961730570013379      687.4730196249931
0.014142104844781908      687.0054193284278
0.014312959944399205      686.6105895282218
0.014482757184992078      686.1912549337029
0.014651794764271453      685.7474155448714
0.014820374911240972      685.2790713617273
0.014988802317395246      684.7862223842707
0.01515738250242126       684.2688686125014
0.015326420157607648      683.7270100464194
0.015496217511551624      683.1606466860246
0.015667072761367945      682.5697785313173
0.01583792791479403       682.0632601618237
0.016007725163749622      681.563790407952
0.01617676270725794       681.0713692697027
0.01634534277588875       680.5859967470756
0.016513770062946447      680.1076728400707
0.01668235009015449       679.636397548688
0.016851387551041475      679.1721708729275
0.017021184676619543      678.714992812789
0.017192039666560827      678.2648633682728
0.017372413817338207      677.8982384541453
0.017551548228302124      677.5561394363255
0.017729791836073705      677.2385663148141
0.017907498824762332      676.9455190896107
0.018085026590318725      676.6769977607154
0.018262733610032132      676.4330023281282
0.018440977279666457      676.2135327918492
0.018620111782963036      676.0185891518779
0.018800486056004474      675.8481714082151
0.018980860449944497      675.9421005688841
0.019159995073081745      676.066263906045
0.019338238861906984      676.2206614196979
0.01951594600057618       676.405293109843
0.019693473885270874      676.6201589764798
0.019871180993697383      676.8652590196086
0.020049424722219357      677.1405932392295
0.02022855925535152       677.4461616353423
0.0204089335301096        677.7819642079471
0.02057978862980686       678.1826139021676
0.020749585870478253      678.5849627881026
0.020918623449835097      678.9890108657523
0.021087203596881453      679.3947581351167
0.021255631003112355      679.8022045961955
0.021424211188215206      680.2113502489891
0.021593248843479067      680.6221950934969
0.021763046197501558      681.0347391297197
0.02193390144739785       681.4489823576569
0.022104756600747556      682.0166779026492
0.02227455384962815       682.5579630673251
0.02244359139306247       683.072837851685
0.022612171461619885      683.5613022557286
0.022780598748604386      684.023356279456
0.022949178775739036      684.4589999228672
0.02311821623655202       684.8682331859621
0.023288013362055097      685.2510560687407
0.023458868351919994      685.6074685712034
0.02363924250270423       686.0344553188887
0.023818376913674867      686.4139779690355
0.023996620521453065      686.746036521644
0.02417432751014825       687.030630976714
0.02435185527571118       687.2677613342456
0.024529562295431146      687.4574275942389
0.02470780596507209       687.5996297566938
0.024886940468375387      687.6943678216104
0.025067314741423676      687.7416417889884
