% Model:              brazing.mph
% Version:            COMSOL 5.3.0.223
% Date:               Oct 24 2018, 04:58
% Dimension:          1
% Nodes:              225
% Expressions:        1
% Description:        Line graph
% x                       Height
0                         735.5785586756925
2.3022181212578358E-4     735.3864948482
4.5999325066962656E-4     735.1650726123746
6.894940081029028E-4      734.9142919682162
9.189044129547812E-4      734.6341529157247
0.001148405006736289      734.3246554549007
0.0013781761183620641     733.9857995857433
0.001608397441069865      733.6175853082532
0.001839314118928521      732.8013539023565
0.0020697760201574002     731.9862277076306
0.002299964597801726      731.1722067240759
0.0025300619515304015     730.3592909516924
0.0027602503975112853     729.5474803904804
0.0029907120357255193     728.7367750404388
0.003221628319839081      727.9271749015688
0.0034518885683530987     726.8805887298089
0.0036816980188178403     725.8180542539874
0.003911236592567028      724.7395714741043
0.004140684848157368      723.6451403901592
0.004370223557282477      722.5347610021528
0.004600033278179856      721.4084333100843
0.004830293931548535      720.2661573139544
0.005060048526376791      718.9442262720996
0.005289355629682316      717.631142905707
0.005518393850920054      716.3269072147762
0.005747342428834         715.0315191993076
0.00597638081262499       713.7449788593015
0.006205688240655705      712.467286194757
0.006435443321622868      711.1984412056748
0.006665339619110656      709.8593262864422
0.006894787442849326      708.5395644400911
0.007123965728649401      707.2391556666215
0.007353054043912613      705.9580999660333
0.007582232167524012      704.6963973383271
0.007811679667266285      703.454047783502
0.008041575479707366      702.2310513015588
0.008271887219609135      701.0138911468574
0.008501747728772392      699.8362761064069
0.008731337046705121      698.6982061802065
0.008960835851156599      697.5996813682568
0.009190425033567954      696.540701670558
0.009420285272008154      695.5212670871092
0.009650596606620833      694.5413776179113
0.009881512912836019      693.6021926027884
0.010111974573021956      692.7200067203701
0.010342163040896366      691.8948199706556
0.010572260416492441      691.1266323536455
0.010802449016030204      690.41544386934
0.011032910939230619      689.7612545177384
0.011263827639190652      689.1640642988413
0.011494048967061755      688.600572914741
0.011723820083820682      688.1257909276098
0.011953320682717213      687.7397183374477
0.012182731092678062      687.4423551442549
0.012412231855226382      687.2337013480314
0.012642003298903411      687.1137569487768
0.012872225116192546      687.0825219464915
0.013102446994778118      686.8770529165661
0.013332218499393473      686.7858757332372
0.01356171932266464       686.8089903965047
0.013791129793276359      686.9463969063684
0.01402063045289555       687.1980952628289
0.014250401630592404      687.5640854658855
0.014480623019759359      688.0443675155386
0.014711539835704642      688.329496142636
0.014942001874208778      688.7111591378635
0.015172190588640395      689.1893565012213
0.01540228807899374       689.764088232709
0.015632476661762654      690.4353543323272
0.015862938437253588      691.2031548000753
0.01609385485945594       692.0674896359535
0.016324115336228646      692.8406833751941
0.016553925013622208      693.6585474498008
0.016783463813500554      694.5210818597741
0.017012912294953733      695.4282866051137
0.01724245123020976       696.3801616858201
0.01747226117803945       697.3767071018924
0.017702522059672054      698.4179228533314
0.017932276794613372      699.4774022078849
0.018161584037218948      700.5641650068751
0.018390622397267263      701.6782112503018
0.018619571113827754      702.8195409381656
0.018848609636427344      703.9881540704662
0.019077917203754128      705.1840506472032
0.019307672424828403      706.4072306683771
0.019537568573699274      707.5481602181966
0.01976701624968263       708.7016833347533
0.019996194388245302      709.8678000180465
0.020225282556443316      711.0465102680766
0.020454460532815345      712.237814084844
0.02068390788479834       713.4417114683479
0.020913803548616574      714.6582024185889
0.02114411498977932       715.6704423143133
0.021373975201947604      716.6910073127036
0.02160356422393484       717.7198974137603
0.02183306273279162       718.757112617483
0.02206265161925901       719.8026529238722
0.02229251156070728       720.8565183329271
0.02252282259658549       721.9187088446483
0.022753738766914562      722.654527539557
0.022984200292012823      723.3847707942102
0.023214388625279938      724.1094386086073
0.023444485866429166      724.828530982749
0.023674674331359946      725.5420479166352
0.023905136119473275      726.2499894102652
0.024136052683548088      726.9523554636397
0.024366274021741702      727.2486207416887
0.024596045148762867      727.5418174056564
0.024825545757885373      727.8319454555428
0.02505495617806012       728.1190048913481
0.02528445695083446       728.4029957130725
0.025514228404773787      728.6839179207153
0.025744450232385536      728.9617715142772
0.025974672267095825      728.825932788174
0.026204443926923768      728.6694602597876
0.02643394490485871       728.492353929118
0.02666335552995085       728.2946137961651
0.026892856344233315      728.076239860929
0.02712262767714175       727.8372321234095
0.02735284922243193       727.5775905836069
0.027583766528201624      726.8547944112277
0.027814229053652367      726.1226429969646
0.028044418253299775      725.3811363408182
0.02827451622829193       724.6302744427879
0.028504705296278778      723.8700573028746
0.028735167558720572      723.1004849210773
0.028966084470753738      722.3215572973967
0.029196345605491433      721.3447646936703
0.02942615593701711       720.3305516037224
0.02965569538872289       719.2789180275521
0.029885144521236064      718.1898639651602
0.030114684108324883      717.0633894165468
0.030344494710297387      715.8994943817108
0.030574756249911007      714.6981788606533
0.030804511377321087      713.4074733965904
0.031033819010118435      712.1042358760207
0.031262857758987544      710.7884662989438
0.03149180686390927       709.46016466536
0.031720845775323685      708.1193309752695
0.031950153732830305      706.7659652286717
0.032179909346355486      705.4000674255672
0.0324098051544111        704.0600163605843
0.032639252491552244      702.7271891253747
0.03286843029245836       701.4015857199382
0.0330975181233935        700.0832061442753
0.03332669576210278       698.772050398386
0.03355614277523119       697.4681184822696
0.033786038098215655      696.1714103959267
0.034016348759356954      694.9408105921715
0.03424620819605658       693.7502159616645
0.034475796445315066      692.5996265044055
0.03470529418235937       691.4890422203949
0.03493488229610333       690.418463109633
0.035164741462093585      689.3878891721189
0.03539505171796626       688.3973204078533
0.035625967353597694      687.4854769752127
0.03585642834714083       686.6394080864056
0.036086616150743635      685.8591137414321
0.03631671286286018       685.1445939402921
0.03654690079812825       684.4958486829862
0.036777362054689705      683.9128779695134
0.03700827808407173       683.3956817998743
0.03723849938140827       682.9441599385576
0.03746827046781093       682.588582379531
0.03769777103645843       682.3289491227937
0.03792718141620601       682.1652601683464
0.0381566821485052        682.0975155161891
0.03838645356182577       682.1257151663212
0.03861667534858004       682.2498591187434
0.038846895274787324      682.2638397698951
0.039076664838430766      682.3961501841687
0.03930616372759302       682.6467903615645
0.03953557226638858       683.0157603020824
0.039765070991905134      683.5030600057227
0.039994840228642616      684.1086894724845
0.040225059665450036      684.8326487023687
0.04045597761776665       685.4305969155628
0.04068644078597457       686.12491877678
0.04091663062609736       686.9156142860198
0.041146729240799984      687.8026834432826
0.04137691894925231       688.7861262485686
0.04160738185443156       689.865942701877
0.04183829941298208       691.0421328032086
0.04206856149768976       692.1658984936399
0.04229837277362926       693.3308060552196
0.04252791316640542       694.5368554879476
0.04275736323887129       695.7840467918243
0.04298690376702529       697.0723799668497
0.04321671531340127       698.401855013023
0.04344697780296935       699.7724719303451
0.043676731016186174      701.212634109168
0.04390603674591497       702.6608305842535
0.04413507359840861       704.1170613556014
0.04436402080919017       705.5813264232123
0.044593057824233256      707.053625787086
0.04482236387867965       708.5339594472221
0.045052117578024006      710.022327403621
0.045282012653644836      711.5253324375151
0.045511459262636354      713.0057192061622
0.04574063633797325       714.4634877095623
0.04596972344420469       715.8986379477155
0.046198900357357554      717.3111699206221
0.046428346642361965      718.7010836282814
0.04665824123294997       720.0683790706939
0.04688855484177433       721.3521541289914
0.04711841720894409       722.6040390739379
0.04734800837831597       723.8240339055329
0.04757750903201372       725.0121386237767
0.047807100065861544      726.1683532286694
0.04803696216230292       727.2926777202106
0.04826727536583021       728.3851120984007
0.048498193048686675      729.2655696087603
0.048728656077441146      730.1087437974938
0.04895884590902903       730.914634664601
0.04918894464672031       731.6832422100821
0.04941913460997818       732.4145664339374
0.04964959790176041       733.108607336166
0.04988051597838159       733.7653649167688
0.05011073543954296       734.0816055060143
0.0503405047004922        734.3787751254603
0.05057000345013497       734.6568737751061
0.05079941201302823       734.9159014549524
0.05102891092631677       735.155858164999
0.05125868051417213       735.3767439052456
0.051488900464733596      735.5785586756925
