% Model:              brazing.mph
% Version:            COMSOL 5.3.0.223
% Date:               Oct 24 2018, 06:23
% Dimension:          1
% Nodes:              193
% Expressions:        1
% Description:        Line graph
% x                       Height
0                         720.8857343419702
1.6028433640637486E-4     720.9589905191735
3.201839556876346E-4      721.0251495947064
4.7982673004648776E-4     721.0842115685682
6.393411493738095E-4      721.1361764407594
7.988560137323205E-4      721.1810442112796
9.58500122107595E-4       721.2188148801292
0.0011184019611720658     721.249488447308
0.0012786893978073315     721.2730649128158
0.0014692881782178572     721.2906331527925
0.0016592398034323465     721.2928517298681
0.0018487589083489172     721.2797206440428
0.00203806159906999       721.2512398953164
0.0022273647228667317     721.2074094836893
0.0024168851255237504     721.1482294091612
0.002606838908709185      721.0736996717322
0.0027974407000143733     720.9838202714025
0.003000214284638094      720.8632251050362
0.0032022105766743216     720.729083659767
0.003403687017647933      720.5813959355946
0.0036049030444305387     720.4201619325192
0.0038061191011872996     720.2453816505408
0.004007595631967136      720.0570550896592
0.00420959207329518       719.8551822498746
0.00441236586612622       719.6397631311869
0.004615139632985625      719.4009904031977
0.004817136048636202      719.1585406258706
0.005018612553936322      718.9124137992053
0.005219828585313435      718.6626099232021
0.005421044586718146      718.4091289978609
0.0056225210022172924     718.1519710231817
0.005824517268584787      717.8911359991645
0.006027290827249049      717.6266239258093
0.006217890949519272      717.3514367519508
0.006407844130704021      717.0928757717317
0.0065973647866391935     716.8509409851522
0.00678666880286996       716.625632392212
0.006975972806121895      716.4169499929113
0.007165493423165078      716.2248937872503
0.007355446539677438      716.0494637752288
0.007546046571713631      715.8906599568467
0.00770633524869351       715.7708092236921
0.007866237248851195      715.6666518580286
0.008025880956992212      715.5781878598564
0.008185395381580456      715.5054172291752
0.008344909844757132      715.4483399659853
0.008504553668569658      715.4069560702866
0.008664455861201733      715.3812655420791
0.008824744806995652      715.3712683813626
0.008985029143401957      715.3777445342191
0.009144928762683142      715.4043362805987
0.009304571537041926      715.451043620501
0.009464085956369179      715.517866553926
0.00962360082072762       715.6048050808738
0.009783244929102828      715.7118592013444
0.009943146768167231      715.839028915338
0.010103434204802428      715.9863142228542
0.010294032985212885      716.1517259981534
0.010483984610427306      716.335416727345
0.01067350371534381       716.5373864104296
0.010862806406064813      716.7576350474064
0.011052109529861487      716.996162638276
0.011241629932518437      717.2529691830383
0.011431583715703804      717.5280546816932
0.011622185507008923      717.8214191342407
0.011824959091632737      718.1127258587175
0.012026955383669057      718.39699474786
0.012228431824642762      718.6742258016685
0.01242964785142546       718.9444190201426
0.012630863908182311      719.2075744032825
0.012832340438962243      719.463691951088
0.01303433688029038       719.7127716635592
0.013237110673121513      719.9548135406963
0.013439884439981065      720.1808034394977
0.013641880855631786      720.3890129851227
0.013843357360932049      720.5794421775705
0.014044573392309304      720.7520910168416
0.014245789393714157      720.9069595029358
0.014447265809213447      721.0440476358533
0.014649262075581083      721.163355415594
0.01485203563424549       721.2648828421577
0.015042635756515686      721.3482498811298
0.015232588937700405      721.4166914360264
0.015422109593635547      721.4702075068475
0.015611413609866287      721.508798093593
0.015800717613118194      721.5324631962629
0.01599023823016135       721.5412028148573
0.01618019134667368       721.5350169493761
0.016370791378709844      721.5139055998194
0.016531080055689654      721.4726647783875
0.01669098205584727       721.4281757815461
0.016850625763988217      721.380438609295
0.017010140188576394      721.3294532616344
0.017169654651752998      721.2752197385643
0.017329298475565455      721.2177380400846
0.017489200668197463      721.1570081661953
0.01764948961399131       721.0930301168964
0.01780977395039525       721.0019917186028
0.017969673569674088      720.9004911922221
0.018129316344030533      720.7885285377549
0.01828883076335545       720.6661037552004
0.01844834562771156       720.5332168445591
0.01860798973608443       720.389867805831
0.018767891575146484      720.2360566390159
0.018928179011779317      720.071783344114
0.019118777792188433      719.8184083232602
0.019308729417401523      719.5449555709458
0.019498248522316707      719.2514250871714
0.019687551213036395      718.9378168719367
0.019876854336831753      718.6041309252415
0.02006637473948738       718.2503672470862
0.020256328522671414      717.8765258374705
0.020446930313975188      717.4826066963944
0.02064970389860279       717.0188645690165
0.02085170019064286       716.5434666454544
0.02105317663162028       716.0564129257078
0.02125439265840668       715.5577034097772
0.021455608715167235      715.0473380976622
0.02165708524595088       714.5253169893628
0.021859081687282764      713.991640084879
0.02206185548011769       713.4463073842111
0.022264629246980954      712.9113736557284
0.022466625662635346      712.3870890130279
0.022668102167939252      711.8734534561096
0.022869318199320136      711.3704669849734
0.023070534200728618      710.8781295996193
0.023272010616231548      710.3964413000474
0.023474006882602858      709.9254020862576
0.02367678044127098       709.46501195825
0.02386738056353977       709.0213498124814
0.024057333744723106      708.6088329156498
0.02424685440065687       708.2274612677548
0.024436158416886237      707.877234868797
0.02462546242013677       707.5581537187759
0.024814983037178547      707.2702178176918
0.025004936153689494      707.0134271655446
0.025195536185724256      706.7877817623342
0.0253558248627017        706.5910363803667
0.025515726862856965      706.4209875685327
0.025675370570995573      706.2776353268322
0.02583488499558142       706.160979655265
0.02599439945875569       706.0710205538314
0.02615404328256581       706.0077580225312
0.026313945475195465      705.9711920613646
0.026474234420986946      705.9613226703315
0.026634518757392422      705.9720776769944
0.02679441837667279       706.0061406629222
0.026954061151030752      706.0635116281147
0.02711357557035719       706.1441905725721
0.027273090434714816      706.2481774962943
0.027432734543089202      706.3754723992811
0.027592636382152785      706.5260752815327
0.02775292381878715       706.6999861430492
0.02794352259919713       706.9132003085452
0.02813347422441108       707.156104108257
0.028322993329327112      707.4286975421838
0.028512296020047647      707.7309806103264
0.02870159914384385       708.0629533126843
0.028891119546500334      708.4246156492577
0.02908107332968523       708.8159676200464
0.029271675120989875      709.2370092250508
0.02947444870561504       709.7023998709235
0.029676444997652693      710.1770676648218
0.02987792143862772       710.6610126067455
0.030079137465411736      711.1542346966945
0.030280353522169904      711.656733934669
0.030481830052951155      712.1685103206687
0.030683826494280624      712.6895638546939
0.030886600287113104      713.2198945367445
0.03108937405397396       713.7444364125632
0.03129137046962597       714.2637612617311
0.03149284697492751       714.7778690842482
0.03169406300630604       715.2867598801143
0.03189527900771217       715.7904336493295
0.03209675542321274       716.2888903918939
0.03229875168958166       716.7821301078075
0.03250152524824737       717.2701527970701
0.03269212537051706       717.6636035746777
0.03288207855170127       718.0354122308447
0.033071599207635916      718.3855787655708
0.033260903223866156      718.7141031788562
0.033450207227117564      719.020985470701
0.033639727844160215      719.306225641105
0.03382968096067204       719.5698236900682
0.034020280992707694      719.8117796175907
0.034180569669686675      719.9866585269682
0.03434047166984347       720.1499275595372
0.0345001153779836        720.3015867152975
0.03465962980257096       720.4416359942492
0.03481914426574675       720.5700753963923
0.034978788089558385      720.6869049217269
0.03513869028218957       720.7921245702528
0.035298979227982585      720.8857343419702
