% Model:              brazing.mph
% Version:            COMSOL 5.3.0.223
% Date:               Oct 24 2018, 06:03
% Dimension:          1
% Nodes:              193
% Expressions:        1
% Description:        Line graph
% x                       Height
0                         956.4382862909994
1.6028433640637486E-4     956.5009995498807
3.201839556876346E-4      956.556393127239
4.7982673004648776E-4     956.6044670230741
6.393411493738095E-4      956.6452212373864
7.988560137323205E-4      956.6786557701756
9.58500122107595E-4       956.7047706214422
0.0011184019611720658     956.7235657911857
0.0012786893978073315     956.7350412794061
0.0014692881782178572     956.7393900858193
0.0016592398034323465     956.7281319408531
0.0018487589083489172     956.7012668445078
0.00203806159906999       956.6587947967834
0.0022273647228667317     956.6007157976798
0.0024168851255237504     956.5270298471968
0.002606838908709185      956.4377369453349
0.0027974407000143733     956.3328370920937
0.003000214284638094      956.1854905004863
0.0032022105766743216     956.0254843905444
0.003403687017647933      955.8528187622679
0.0036049030444305387     955.667493615657
0.0038061191011872996     955.4695089507117
0.004007595631967136      955.2588647674314
0.00420959207329518       955.035561065817
0.00441236586612622       954.7995978458679
0.004615139632985625      954.5422487250474
0.004817136048636202      954.2798972965737
0.005018612553936322      954.0125435604474
0.005219828585313435      953.740187516668
0.005421044586718146      953.4628291652356
0.0056225210022172924     953.1804685061501
0.005824517268584787      952.8931055394117
0.006027290827249049      952.6007402650204
0.006217890949519272      952.2920647895554
0.006407844130704021      952.0024978513817
0.0065973647866391935     951.732039450499
0.00678666880286996       951.4806895869075
0.006975972806121895      951.248448260607
0.007165493423165078      951.0353154715978
0.007355446539677438      950.8412912198795
0.007546046571713631      950.6663755054525
0.00770633524869351       950.5367412618597
0.007866237248851195      950.4232734267617
0.008025880956992212      950.3259720001598
0.008185395381580456      950.244836982053
0.008344909844757132      950.1798683724418
0.008504553668569658      950.1310661713256
0.008664455861201733      950.0984303787051
0.008824744806995652      950.0819609945798
0.008985029143401957      950.0834525451286
0.009144928762683142      950.1080067125839
0.009304571537041926      950.1556234969463
0.009464085956369179      950.2263028982151
0.00962360082072762       950.3200449163909
0.009783244929102828      950.4368495514731
0.009943146768167231      950.5767168034621
0.010103434204802428      950.7396466723579
0.010294032985212885      950.9149218506033
0.010483984610427306      951.1113343364776
0.01067350371534381       951.328884129981
0.010862806406064813      951.5675712311134
0.011052109529861487      951.8273956398749
0.011241629932518437      952.1083573562654
0.011431583715703804      952.4104563802847
0.011622185507008923      952.7336927119333
0.011824959091632737      953.0586287073787
0.012026955383669057      953.3742622004271
0.012228431824642762      953.6805931910777
0.01242964785142546       953.9776216793308
0.012630863908182311      954.2653476651866
0.012832340438962243      954.5437711486449
0.01303433688029038       954.8128921297058
0.013237110673121513      955.0727106083692
0.013439884439981065      955.3286939391722
0.013641880855631786      955.5647814175885
0.013843357360932049      955.7809730436171
0.014044573392309304      955.9772688172592
0.014245789393714157      956.1536687385138
0.014447265809213447      956.3101728073817
0.014649262075581083      956.4467810238624
0.01485203563424549       956.5634933879559
0.015042635756515686      956.6585855192758
0.015232588937700405      956.7386834691212
0.015422109593635547      956.8037872374922
0.015611413609866287      956.8538968243882
0.015800717613118194      956.88901222981
0.01599023823016135       956.9091334537569
0.01618019134667368       956.9142604962295
0.016370791378709844      956.9043933572274
0.016531080055689654      956.87214041397
0.01669098205584727       956.8373699884011
0.016850625763988217      956.8000820805206
0.017010140188576394      956.7602766903289
0.017169654651752998      956.7179538178256
0.017329298475565455      956.673113463011
0.017489200668197463      956.6257556258848
0.01764948961399131       956.5758803064472
0.01780977395039525       956.4965214919558
0.017969673569674088      956.4067271409848
0.018129316344030533      956.3064972535343
0.01828883076335545       956.1958318296041
0.01844834562771156       956.0747308691945
0.01860798973608443       955.9431943723054
0.018767891575146484      955.8012223389366
0.018928179011779317      955.6488147690883
0.019118777792188433      955.3900253768169
0.019308729417401523      955.1090560943722
0.019498248522316707      954.8059069217551
0.019687551213036395      954.4805778589649
0.019876854336831753      954.133068906002
0.02006637473948738       953.7633800628665
0.020256328522671414      953.3715113295581
0.020446930313975188      952.9574627060769
0.02064970389860279       952.4850279169654
0.02085170019064286       951.9988680194607
0.02105317663162028       951.4989830135629
0.02125439265840668       950.985372899272
0.021455608715167235      950.4580376765879
0.02165708524595088       949.9169773455106
0.021859081687282764      949.3621919060405
0.02206185548011769       948.793681358177
0.022264629246980954      948.2522983383343
0.022466625662635346      947.7202303830371
0.022668102167939252      947.1974774922847
0.022869318199320136      946.6840396660776
0.023070534200728618      946.1799169044158
0.023272010616231548      945.685109207299
0.023474006882602858      945.1996165747272
0.02367678044127098       944.7234390067007
0.02386738056353977       944.2638559074368
0.024057333744723106      943.8374953757572
0.02424685440065687       943.4443574116614
0.024436158416886237      943.0844420151496
0.02462546242013677       942.757749186222
0.024814983037178547      942.4642789248786
0.025004936153689494      942.2040312311191
0.025195536185724256      941.9770061049438
0.0253558248627017        941.7729582306839
0.025515726862856965      941.5971887511874
0.025675370570995573      941.449697666454
0.02583488499558142       941.330484976484
0.02599439945875569       941.2395506812774
0.02615404328256581       941.1768947808338
0.026313945475195465      941.1425172751539
0.026474234420986946      941.1364181642372
0.026634518757392422      941.1539303674907
0.02679441837667279       941.1949203857488
0.026954061151030752      941.2593882190107
0.02711357557035719       941.3473338672771
0.027273090434714816      941.4587573305477
0.027432734543089202      941.5936586088225
0.027592636382152785      941.7520377021016
0.02775292381878715       941.933894610385
0.02794352259919713       942.1544827009624
0.02813347422441108       942.4058413884501
0.028322993329327112      942.6879706728477
0.028512296020047647      943.0008705541558
0.02870159914384385       943.3445410323737
0.028891119546500334      943.718982107502
0.02908107332968523       944.1241937795404
0.029271675120989875      944.5601760484889
0.02947444870561504       945.0518456463689
0.029676444997652693      945.5497993470389
0.02987792143862772       946.0540371504986
0.030079137465411736      946.5645590567486
0.030280353522169904      947.0813650657884
0.030481830052951155      947.6044551776187
0.030683826494280624      948.1338293922385
0.030886600287113104      948.6694877096485
0.03108937405397396       949.2054581185654
0.03129137046962597       949.7375269765586
0.03149284697492751       950.2656942836273
0.03169406300630604       950.7899600397719
0.03189527900771217       951.3103242449923
0.03209675542321274       951.8267868992885
0.03229875168958166       952.3393480026604
0.03250152524824737       952.8480075551082
0.03269212537051706       953.2462912404652
0.03288207855170127       953.6218520089088
0.033071599207635916      953.9746898604384
0.033260903223866156      954.3048047950548
0.033450207227117564      954.6121968127576
0.033639727844160215      954.8968659135465
0.03382968096067204       955.1588120974221
0.034020280992707694      955.3980353643841
0.034180569669686675      955.5708831537496
0.03434047166984347       955.7314976792469
0.0345001153779836        955.8798789408762
0.03465962980257096       956.0160269386373
0.03481914426574675       956.13994167253
0.034978788089558385      956.2516231425549
0.03513869028218957       956.3510713487111
0.035298979227982585      956.4382862909994
