% Model:              brazing.mph
% Version:            COMSOL 5.3.0.223
% Date:               Oct 24 2018, 04:27
% Dimension:          1
% Nodes:              225
% Expressions:        1
% Description:        Line graph
% x                       Height
0                         730.9499753678663
2.3022181212578358E-4     730.7777881826329
4.5999325066962656E-4     730.5731303821577
6.894940081029028E-4      730.3360019664409
9.189044129547812E-4      730.0664029354821
0.001148405006736289      729.7643332892818
0.0013781761183620641     729.4297930278393
0.001608397441069865      729.0627821511554
0.001839314118928521      728.2697602451497
0.0020697760201574002     727.4756387110984
0.002299964597801726      726.6804175490015
0.0025300619515304015     725.8840967588593
0.0027602503975112853     725.0866763406719
0.0029907120357255193     724.2881562944389
0.003221628319839081      723.4885366201604
0.0034518885683530987     722.4598209898534
0.0036816980188178403     721.4168206736722
0.003911236592567028      720.3595356716163
0.004140684848157368      719.287965983686
0.004370223557282477      718.2021116098819
0.004600033278179856      717.1019725502028
0.004830293931548535      715.9875488046497
0.005060048526376791      714.6864331472915
0.005289355629682316      713.3952061363857
0.005518393850920054      712.1138677719317
0.005747342428834         710.8424180539303
0.00597638081262499       709.5808569823811
0.006205688240655705      708.3291845572838
0.006435443321622868      707.0874007786391
0.006665339619110656      705.7686925761302
0.006894787442849326      704.4704439259228
0.007123965728649401      703.1926548280169
0.007353054043912613      701.9353252824124
0.007582232167524012      700.6984552891093
0.007811679667266285      699.4820448481074
0.008041575479707366      698.2860939594071
0.008271887219609135      697.0897167445952
0.008501747728772392      695.9331218637625
0.008731337046705121      694.8163093169092
0.008960835851156599      693.7392791040352
0.009190425033567954      692.702031225141
0.009420285272008154      691.704565680226
0.009650596606620833      690.7468824692905
0.009881512912836019      689.8250858494932
0.010111974573021956      688.9599190673196
0.010342163040896366      688.1513821227694
0.010572260416492441      687.3994750158431
0.010802449016030204      686.7041977465408
0.011032910939230619      686.0655503148616
0.011263827639190652      685.4835327208066
0.011494048967061755      684.9332311497933
0.011723820083820682      684.4691611420672
0.011953320682717213      684.0913226976279
0.012182731092678062      683.7997158164759
0.012412231855226382      683.5943404986111
0.012642003298903411      683.4751967440329
0.012872225116192546      683.4422845527422
0.013102446994778118      683.252288682432
0.013332218499393473      683.171763973785
0.01356171932266464       683.2007104268008
0.013791129793276359      683.3391280414797
0.01402063045289555       683.5870168178216
0.014250401630592404      683.9443767558262
0.014480623019759359      684.411207855494
0.014711539835704642      684.7009429791198
0.014942001874208778      685.0834219549968
0.015172190588640395      685.5586447831246
0.01540228807899374       686.1266114635037
0.015632476661762654      686.7873219961341
0.015862938437253588      687.5407763810152
0.01609385485945594       688.3869746181477
0.016324115336228646      689.1495293052383
0.016553925013622208      689.9565405061774
0.016783463813500554      690.8080082209646
0.017012912294953733      691.7039324496
0.01724245123020976       692.6443131920842
0.01747226117803945       693.6291504484161
0.017702522059672054      694.6584442185966
0.017932276794613372      695.6994133897382
0.018161584037218948      696.7682580502964
0.018390622397267263      697.8649782002708
0.018619571113827754      698.9895738396615
0.018848609636427344      700.142044968469
0.019077917203754128      701.3223915866923
0.019307672424828403      702.5306136943324
0.019537568573699274      703.6495571753328
0.01976701624968263       704.7824260757432
0.019996194388245302      705.9292203955639
0.020225282556443316      707.0899401347948
0.020454460532815345      708.2645852934362
0.02068390788479834       709.4531558714875
0.020913803548616574      710.6556518689491
0.02114411498977932       711.6478333333268
0.021373975201947604      712.6495301868626
0.02160356422393484       713.6607424295568
0.02183306273279162       714.6814700614091
0.02206265161925901       715.7117130824199
0.02229251156070728       716.7514714925886
0.02252282259658549       717.8007452919157
0.022753738766914562      718.5195591536041
0.022984200292012823      719.2340722776572
0.023214388625279938      719.9442846640749
0.023444485866429166      720.6501963128569
0.023674674331359946      721.3518072240038
0.023905136119473275      722.0491173975149
0.024136052683548088      722.7421268333909
0.024366274021741702      723.0281668881398
0.024596045148762867      723.3103969698884
0.024825545757885373      723.5888170786369
0.02505495617806012       723.8634272143853
0.02528445695083446       724.1342273771337
0.025514228404773787      724.4012175668815
0.025744450232385536      724.6643977836295
0.025974672267095825      724.5362921154909
0.026204443926923768      724.3840974343276
0.02643394490485871       724.2078137401396
0.02666335552995085       724.0074410329267
0.026892856344233315      723.7829793126896
0.02712262767714175       723.5344285794273
0.02735284922243193       723.2617888331405
0.027583766528201624      722.5508318850365
0.027814229053652367      721.8279476273079
0.028044418253299775      721.0931360599553
0.02827451622829193       720.3463971829781
0.028504705296278778      719.587730996377
0.028735167558720572      718.817137500151
0.028966084470753738      718.0346166943011
0.029196345605491433      717.0664715175022
0.02942615593701711       716.0620150204057
0.02965569538872289       715.0212472030113
0.029885144521236064      713.944168065319
0.030114684108324883      712.8307776073291
0.030344494710297387      711.6810758290411
0.030574756249911007      710.4950627304554
0.030804511377321087      709.2146209138842
0.031033819010118435      707.9229091666164
0.031262857758987544      706.6199274886516
0.03149180686390927       705.3056758799901
0.031720845775323685      703.9801543406325
0.031950153732830305      702.6433628705774
0.032179909346355486      701.2953014698261
0.0324098051544111        699.9661820791513
0.032639252491552244      698.6455030313962
0.03286843029245836       697.3332643265608
0.0330975181233935        696.0294659646449
0.03332669576210278       694.7341079456493
0.03355614277523119       693.4471902695728
0.033786038098215655      692.1687129364163
0.034016348759356954      690.950070101229
0.03424620819605658       689.77166122842
0.034475796445315066      688.6334863179894
0.03470529418235937       687.5355453699373
0.03493488229610333       686.4778383842637
0.035164741462093585      685.4603653609682
0.03539505171796626       684.4831263000514
0.035625967353597694      683.5798701705877
0.03585642834714083       682.7419564575731
0.036086616150743635      681.9693851610074
0.03631671286286018       681.2621562808908
0.03654690079812825       680.6202698172236
0.036777362054689705      680.0437257700052
0.03700827808407173       679.532524139236
0.03723849938140827       679.0849526744722
0.03746827046781093       678.7310102907034
0.03769777103645843       678.4706969879294
0.03792718141620601       678.30401276615
0.0381566821485052        678.2309576253657
0.03838645356182577       678.2515315655759
0.03861667534858004       678.365734586781
0.038846895274787324      678.3845101034987
0.039076664838430766      678.5172877152335
0.03930616372759302       678.7640674219857
0.03953557226638858       679.1248492237553
0.039765070991905134      679.5996331205428
0.039994840228642616      680.188419112347
0.040225059665450036      680.8912071991689
0.04045597761776665       681.483718314777
0.04068644078597457       682.1692194638365
0.04091663062609736       682.9477106463473
0.041146729240799984      683.8191918623095
0.04137691894925231       684.7836631117233
0.04160738185443156       685.8411243945882
0.04183829941298208       686.9915757109046
0.04206856149768976       688.095886149044
0.04229837277362926       689.2414150416514
0.04252791316640542       690.4281623887267
0.04275736323887129       691.6561281902702
0.04298690376702529       692.9253124462823
0.04321671531340127       694.235715156762
0.04344697780296935       695.58733632171
0.043676731016186174      697.0026709609224
0.04390603674591497       698.426994342108
0.04413507359840861       699.8603064652666
0.04436402080919017       701.302607330398
0.044593057824233256      702.7538969375031
0.04482236387867965       704.2141752865807
0.045052117578024006      705.6834423776315
0.045282012653644836      707.1608881609602
0.045511459262636354      708.6175949486947
0.04574063633797325       710.0535627408348
0.04596972344420469       711.4687915373805
0.046198900357357554      712.8632813383324
0.046428346642361965      714.2370321436894
0.04665824123294997       715.5900439534524
0.04688855484177433       716.8542375991154
0.04711841720894409       718.0884032794186
0.04734800837831597       719.2925409943622
0.04757750903201372       720.4666507439459
0.047807100065861544      721.6107325281704
0.04803696216230292       722.7247863470348
0.04826727536583021       723.8088122005396
0.048498193048686675      724.6773288787318
0.048728656077441146      725.5105099007474
0.04895884590902903       726.3083552665861
0.04918894464672031       727.070864976248
0.04941913460997818       727.7980390297333
0.04964959790176041       728.4898774270416
0.04988051597838159       729.1463801681733
0.05011073543954296       729.4620313334638
0.0503405047004922        729.7583509293569
0.05057000345013497       730.0353389558529
0.05079941201302823       730.2929954129519
0.05102891092631677       730.5313203006539
0.05125868051417213       730.7503136189586
0.051488900464733596      730.9499753678663
