% Model:              brazing.mph
% Version:            COMSOL 5.3.0.223
% Date:               Oct 24 2018, 02:09
% Dimension:          1
% Nodes:              225
% Expressions:        1
% Description:        Line graph
% x                       Height
0                         673.0686106918333
2.3022181212578358E-4     672.932513881495
4.5999325066962656E-4     672.7673254993637
6.894940081029028E-4      672.5730455454391
9.189044129547812E-4      672.3496740197214
0.001148405006736289      672.0972109222113
0.0013781761183620641     671.8156562529076
0.001608397441069865      671.5050100118111
0.001839314118928521      670.8016335591218
0.0020697760201574002     670.1005767644439
0.002299964597801726      669.4018396277772
0.0025300619515304015     668.7054221491219
0.0027602503975112853     668.0113243284783
0.0029907120357255193     667.3195461658456
0.003221628319839081      666.6300876612245
0.0034518885683530987     665.7265810877732
0.0036816980188178403     664.8146071022707
0.003911236592567028      663.8941657047164
0.004140684848157368      662.9652568951109
0.004370223557282477      662.0278806734542
0.004600033278179856      661.0820370397457
0.004830293931548535      660.127725993986
0.005060048526376791      658.9830633022286
0.005289355629682316      657.8512277658677
0.005518393850920054      656.7322193849037
0.005747342428834         655.6260381593364
0.00597638081262499       654.5326840891661
0.006205688240655705      653.4521571743921
0.006435443321622868      652.3844574150152
0.006665339619110656      651.2326765397747
0.006894787442849326      650.1021210051049
0.007123965728649401      648.9927908110053
0.007353054043912613      647.9046859574765
0.007582232167524012      646.8378064445186
0.007811679667266285      645.7921522721308
0.008041575479707366      644.767723440314
0.008271887219609135      643.7336519719287
0.008501747728772392      642.736287540045
0.008731337046705121      641.7756301446628
0.008960835851156599      640.8516797857822
0.009190425033567954      639.9644364634031
0.009420285272008154      639.1139001775254
0.009650596606620833      638.3000709281492
0.009881512912836019      637.5125222535962
0.010111974573021956      636.7755510974507
0.010342163040896366      636.0891574597124
0.010572260416492441      635.4533413403816
0.010802449016030204      634.8681027394585
0.011032910939230619      634.3334416569423
0.011263827639190652      633.849358092834
0.011494048967061755      633.388491270178
0.011723820083820682      633.0041999346028
0.011953320682717213      632.6964840861081
0.012182731092678062      632.4653437246939
0.012412231855226382      632.3107788503606
0.012642003298903411      632.2327894631077
0.012872225116192546      632.2313755629356
0.013102446994778118      632.0860322220907
0.013332218499393473      632.0377829086815
0.01356171932266464       632.0866276227081
0.013791129793276359      632.2325663641703
0.01402063045289555       632.4755991330685
0.014250401630592404      632.8157259294021
0.014480623019759359      633.2529467531716
0.014711539835704642      633.5245268846809
0.014942001874208778      633.8791351008425
0.015172190588640395      634.3167714016568
0.01540228807899374       634.8374357871235
0.015632476661762654      635.4411282572429
0.015862938437253588      636.1278488120145
0.01609385485945594       636.8975974514387
0.016324115336228646      637.5841094317556
0.016553925013622208      638.3111088493426
0.016783463813500554      639.0785957041996
0.017012912294953733      639.8865699963268
0.01724245123020976       640.7350317257245
0.01747226117803945       641.6239808923918
0.017702522059672054      642.5534174963296
0.017932276794613372      643.4828469073842
0.018161584037218948      644.4391600317728
0.018390622397267263      645.4223568694952
0.018619571113827754      646.4324374205517
0.018848609636427344      647.4694016849422
0.019077917203754128      648.5332496626665
0.019307672424828403      649.623981353725
0.019537568573699274      650.6166310717622
0.01976701624968263       651.6254347326609
0.019996194388245302      652.6503923364207
0.020225282556443316      653.691503883042
0.020454460532815345      654.7487693725249
0.02068390788479834       655.8221888048686
0.020913803548616574      656.911762180074
0.02114411498977932       657.7856330173652
0.021373975201947604      658.6728310298366
0.02160356422393484       659.573356217488
0.02183306273279162       660.4872085803196
0.02206265161925901       661.4143881183317
0.02229251156070728       662.3548948315234
0.02252282259658549       663.3087287198956
0.022753738766914562      663.9303139981351
0.022984200292012823      664.5535070943273
0.023214388625279938      665.1783080084715
0.023444485866429166      665.8047167405682
0.023674674331359946      666.4327332906178
0.023905136119473275      667.0623576586192
0.024136052683548088      667.6935898445735
0.024366274021741702      667.919073697487
0.024596045148762867      668.1454750863077
0.024825545757885373      668.3727940110348
0.02505495617806012       668.601030471669
0.02528445695083446       668.8301844682104
0.025514228404773787      669.0602560006582
0.025744450232385536      669.2912450690131
0.025974672267095825      669.1626473448041
0.026204443926923768      669.0114959130239
0.02643394490485871       668.8377907736724
0.02666335552995085       668.6415319267497
0.026892856344233315      668.4227193722563
0.02712262767714175       668.1813531101915
0.02735284922243193       667.9174331405557
0.027583766528201624      667.2556890804873
0.027814229053652367      666.5845045901415
0.028044418253299775      665.9038796695183
0.02827451622829193       665.213814318618
0.028504705296278778      664.5143085374406
0.028735167558720572      663.8053623259855
0.028966084470753738      663.0869756842534
0.029196345605491433      662.206229684147
0.02942615593701711       661.2944938134727
0.02965569538872289       660.3517680722302
0.029885144521236064      659.3780524604198
0.030114684108324883      658.3733469780417
0.030344494710297387      657.3376516250952
0.030574756249911007      656.270966401581
0.030804511377321087      655.1093208003598
0.031033819010118435      653.9395178469363
0.031262857758987544      652.7615575413101
0.03149180686390927       651.5754398834817
0.031720845775323685      650.3811648734511
0.031950153732830305      649.1787325112177
0.032179909346355486      647.9681427967822
0.0324098051544111        646.7686598659809
0.032639252491552244      645.5779042982803
0.03286843029245836       644.3958760936803
0.0330975181233935        643.2225752521807
0.03332669576210278       642.058001773782
0.03355614277523119       640.9021556584836
0.033786038098215655      639.7550369062859
0.034016348759356954      638.6580040556726
0.03424620819605658       637.5968368777486
0.034475796445315066      636.5715353725138
0.03470529418235937       635.5820995399683
0.03493488229610333       634.6285293801125
0.035164741462093585      633.7108248929455
0.03539505171796626       632.8289860784681
0.035625967353597694      632.0107900537218
0.03585642834714083       631.2501914518984
0.036086616150743635      630.5471902729973
0.03631671286286018       629.9017865170189
0.03654690079812825       629.3139801839634
0.036777362054689705      628.7837712738301
0.03700827808407173       628.3111597866197
0.03723849938140827       627.8924571738579
0.03746827046781093       627.5569480468495
0.03769777103645843       627.3046324055941
0.03792718141620601       627.135510250092
0.0381566821485052        627.0495815803433
0.03838645356182577       627.0468463963474
0.03861667534858004       627.127304698105
0.038846895274787324      627.1149867296764
0.039076664838430766      627.2049042883398
0.03930616372759302       627.3970573740952
0.03953557226638858       627.6914459869428
0.039765070991905134      628.0880701268826
0.039994840228642616      628.5869297939141
0.040225059665450036      629.188024988038
0.04045597761776665       629.679607186397
0.04068644078597457       630.2553746368452
0.04091663062609736       630.9153273393824
0.041146729240799984      631.6594652940086
0.04137691894925231       632.4877885007243
0.04160738185443156       633.4002969595284
0.04183829941298208       634.396990670422
0.04206856149768976       635.343225578442
0.04229837277362926       636.3272916259816
0.04252791316640542       637.3491888130407
0.04275736323887129       638.408917139619
0.04298690376702529       639.5064766057174
0.04321671531340127       640.6418672113348
0.04344697780296935       641.8150889564719
0.043676731016186174      643.0436367771026
0.04390603674591497       644.2818104678321
0.04413507359840861       645.5296100286605
0.04436402080919017       646.7870354595877
0.044593057824233256      648.054086760614
0.04482236387867965       649.330763931739
0.045052117578024006      650.617066972963
0.045282012653644836      651.9061621578709
0.045511459262636354      653.1798655967069
0.04574063633797325       654.4381772894711
0.04596972344420469       655.6810972361635
0.046198900357357554      656.9086254367842
0.046428346642361965      658.1207618913328
0.04665824123294997       659.3175065998098
0.04688855484177433       660.4244059385996
0.04711841720894409       661.5091130420348
0.04734800837831597       662.5716279101151
0.04757750903201372       663.611950542841
0.047807100065861544      664.6300809402123
0.04803696216230292       665.6260191022287
0.04826727536583021       666.5997650288907
0.048498193048686675      667.3602736646579
0.048728656077441146      668.0955320988836
0.04895884590902903       668.8055403315677
0.04918894464672031       669.4902983627102
0.04941913460997818       670.1498061923116
0.04964959790176041       670.7840638203711
0.04988051597838159       671.3930712468892
0.05011073543954296       671.6674099429243
0.0503405047004922        671.9300899995641
0.05057000345013497       672.1811114168086
0.05079941201302823       672.4204741946577
0.05102891092631677       672.6481783331117
0.05125868051417213       672.8642238321701
0.051488900464733596      673.0686106918333
