% Model:              brazing.mph
% Version:            COMSOL 5.3.0.223
% Date:               Oct 24 2018, 04:27
% Dimension:          1
% Nodes:              193
% Expressions:        1
% Description:        Line graph
% x                       Height
0                         647.6311660089101
1.6028433640637486E-4     647.707808122615
3.201839556876346E-4      647.7771317651585
4.7982673004648776E-4     647.8391369365403
6.393411493738095E-4      647.8938236367608
7.988560137323205E-4      647.9411918658197
9.58500122107595E-4       647.9812416237172
0.0011184019611720658     648.0139729104532
0.0012786893978073315     648.0393857260277
0.0014692881782178572     648.0572552370434
0.0016592398034323465     648.0576976188506
0.0018487589083489172     648.0407128714493
0.00203806159906999       648.0063009948396
0.0022273647228667317     647.9544619890216
0.0024168851255237504     647.885195853995
0.002606838908709185      647.7985025897601
0.0027974407000143733     647.6943821963168
0.003000214284638094      647.5610917895431
0.0032022105766743216     647.4123251829346
0.003403687017647933      647.2480823764918
0.0036049030444305387     647.0683633702143
0.0038061191011872996     646.8731681641025
0.004007595631967136      646.662496758156
0.00420959207329518       646.4363491523749
0.00441236586612622       646.1947253467594
0.004615139632985625      645.9223976988641
0.004817136048636202      645.646311926134
0.005018612553936322      645.3664680285693
0.005219828585313435      645.08286600617
0.005421044586718146      644.7955058589359
0.0056225210022172924     644.5043875868672
0.005824517268584787      644.2095111899639
0.006027290827249049      643.9108766682258
0.006217890949519272      643.6002389235432
0.006407844130704021      643.3088735432185
0.0065973647866391935     643.0367805272521
0.00678666880286996       642.7839598756435
0.006975972806121895      642.550411588393
0.007165493423165078      642.3361356655004
0.007355446539677438      642.1411321069658
0.007546046571713631      641.9654009127892
0.00770633524869351       641.834573927585
0.007866237248851195      641.7217938053465
0.008025880956992212      641.6270605460736
0.008185395381580456      641.5503741497663
0.008344909844757132      641.4917346164247
0.008504553668569658      641.4511419460488
0.008664455861201733      641.4285961386385
0.008824744806995652      641.4240971941938
0.008985029143401957      641.4401063477021
0.009144928762683142      641.4789438889345
0.009304571537041926      641.5406098178911
0.009464085956369179      641.625104134572
0.00962360082072762       641.7324268389771
0.009783244929102828      641.8625779311063
0.009943146768167231      642.0155574109599
0.010103434204802428      642.1913652785377
0.010294032985212885      642.3911548285388
0.010483984610427306      642.6118433775126
0.01067350371534381       642.8534309254593
0.010862806406064813      643.1159174723787
0.011052109529861487      643.3993030182709
0.011241629932518437      643.7035875631358
0.011431583715703804      644.0287711069734
0.011622185507008923      644.3748536497839
0.011824959091632737      644.7190585595894
0.012026955383669057      645.0552473711928
0.012228431824642762      645.3834200845938
0.01242964785142546       645.7035766997926
0.012630863908182311      646.0157172167892
0.012832340438962243      646.3198416355835
0.01303433688029038       646.6159499561755
0.013237110673121513      646.9040421785654
0.013439884439981065      647.1688401383166
0.013641880855631786      647.413245074705
0.013843357360932049      647.6372569877307
0.014044573392309304      647.8408758773937
0.014245789393714157      648.024101743694
0.014447265809213447      648.1869345866318
0.014649262075581083      648.3293744062067
0.01485203563424549       648.451421202419
0.015042635756515686      648.554442581298
0.015232588937700405      648.6401798363951
0.015422109593635547      648.7086329677102
0.015611413609866287      648.7598019752434
0.015800717613118194      648.7936868589946
0.01599023823016135       648.810287618964
0.01618019134667368       648.8096042551514
0.016370791378709844      648.791636767557
0.016531080055689654      648.7494550074082
0.01669098205584727       648.7040598317368
0.016850625763988217      648.6554512405424
0.017010140188576394      648.6036292338256
0.017169654651752998      648.548593811586
0.017329298475565455      648.4903449738237
0.017489200668197463      648.4288827205386
0.01764948961399131       648.3642070517309
0.01780977395039525       648.2659066294459
0.017969673569674088      648.1556469801131
0.018129316344030533      648.0334281037325
0.01828883076335545       647.8992500003039
0.01844834562771156       647.7531126698276
0.01860798973608443       647.5950161123034
0.018767891575146484      647.4249603277312
0.018928179011779317      647.2429453161113
0.019118777792188433      646.9598266590953
0.019308729417401523      646.6534376430039
0.019498248522316707      646.3237782678373
0.019687551213036395      645.9708485335954
0.019876854336831753      645.5946484402782
0.02006637473948738       645.1951779878857
0.020256328522671414      644.772437176418
0.020446930313975188      644.326426005875
0.02064970389860279       643.797491676548
0.02085170019064286       643.2550964108862
0.02105317663162028       642.6992402088895
0.02125439265840668       642.1299230705577
0.021455608715167235      641.547144995891
0.02165708524595088       640.9509059848893
0.021859081687282764      640.3412060375529
0.02206185548011769       639.7180451538813
0.022264629246980954      639.1022928915847
0.022466625662635346      638.4984532157065
0.022668102167939252      637.9065261262464
0.022869318199320136      637.3265116232045
0.023070534200728618      636.7584097065809
0.023272010616231548      636.2022203763754
0.023474006882602858      635.6579436325883
0.02367678044127098       635.1255794752193
0.02386738056353977       634.6128160947011
0.024057333744723106      634.1353374306169
0.02424685440065687       633.6931434829671
0.024436158416886237      633.2862342517514
0.02462546242013677       632.9146097369699
0.024814983037178547      632.5782699386223
0.025004936153689494      632.2772148567091
0.025195536185724256      632.01144449123
0.0253558248627017        631.7814439752958
0.025515726862856965      631.5814898508992
0.025675370570995573      631.41158211804
0.02583488499558142       631.2717207767184
0.02599439945875569       631.1619058269343
0.02615404328256581       631.0821372686877
0.026313945475195465      631.0324151019786
0.026474234420986946      631.012739326807
0.026634518757392422      631.0183020236238
0.02679441837667279       631.0500761702549
0.026954061151030752      631.1080617667
0.02711357557035719       631.1922588129594
0.027273090434714816      631.3026673090329
0.027432734543089202      631.4392872549206
0.027592636382152785      631.6021186506225
0.02775292381878715       631.7911614961386
0.02794352259919713       632.0265166812724
0.02813347422441108       632.2958038642871
0.028322993329327112      632.5990230451825
0.028512296020047647      632.9361742239588
0.02870159914384385       633.3072574006159
0.028891119546500334      633.7122725751536
0.02908107332968523       634.1512197475723
0.029271675120989875      634.6240989178717
0.02947444870561504       635.1464322324822
0.029676444997652693      635.6796501041111
0.02987792143862772       636.2237525327583
0.030079137465411736      636.7787395184239
0.030280353522169904      637.3446110611077
0.030481830052951155      637.92136716081
0.030683826494280624      638.5090078175306
0.030886600287113104      639.1075330312694
0.03108937405397396       639.6957171648443
0.03129137046962597       640.2775032318791
0.03149284697492751       640.8528912323734
0.03169406300630604       641.4218811663276
0.03189527900771217       641.9844730337416
0.03209675542321274       642.5406668346151
0.03229875168958166       643.0904625689485
0.03250152524824737       643.6338602367417
0.03269212537051706       644.0761719333686
0.03288207855170127       644.4933226290572
0.033071599207635916      644.8853123238079
0.033260903223866156      645.2521410176203
0.033450207227117564      645.5938087104945
0.033639727844160215      645.9103154024306
0.03382968096067204       646.2016610934286
0.034020280992707694      646.4678457834883
0.034180569669686675      646.6575280996705
0.03434047166984347       646.8345626192801
0.0345001153779836        646.9989493423168
0.03465962980257096       647.1506882687809
0.03481914426574675       647.2897793986723
0.034978788089558385      647.4162227319908
0.03513869028218957       647.5300182687369
0.035298979227982585      647.6311660089101
