% Model:              brazing.mph
% Version:            COMSOL 5.3.0.223
% Date:               Oct 24 2018, 06:20
% Dimension:          1
% Nodes:              145
% Expressions:        1
% Description:        Line graph
% x                       Height
0                         750.3634847139659
1.8037553861809572E-4     750.6177267285282
3.5951128344368776E-4     750.8198865098004
5.377561773732229E-4      750.9699640577829
7.154644111300318E-4      751.0679593724755
8.929933875627798E-4      751.1138724538786
0.0010707015910786408     751.1077033019914
0.0012489464247083767     751.0494519168145
0.0014280820795340731     750.939118298348
0.0016084574989771061     750.7767024465915
0.0017793134314883058     750.7156298524543
0.0019491114898538484     750.6309170677076
0.002118149876008701      750.5225640923518
0.0022867308232763497     750.3905709263865
0.002455159027530182      750.234937569812
0.0026237400128558564     750.055664022628
0.0027927784749207734     749.8527502848348
0.0029625766466419693     749.626196356432
0.0031334327293582195     749.37600223742
0.0033042867504275058     749.2172654342976
0.0034740828875811486     749.0528854683986
0.0036431193341009516     748.8828623397233
0.0038116983146850476     748.7071960482715
0.003980124516686077      748.5258865940432
0.004148703455848711      748.3389339770384
0.004317739819749776      748.1463381972571
0.004487535833529769      747.9480992546996
0.004658389691119368      747.7442171493653
0.0048387629974717405     747.6333241966281
0.005017896580971026      747.5248637511455
0.005196139373513023      747.418835812918
0.0053738455543625        747.3152403819454
0.005551372514551955      747.2140774582276
0.005729078726427549      747.115347041765
0.005907321580834967      747.019049132557
0.006086455256670912      746.9251837306041
0.006266828685292636      746.833750835906
0.0064472042239161545     746.9763748669334
0.0066263399687470585     747.1248534701367
0.00680458486268183       747.2791866455167
0.0069822930964438265     747.4393743930727
0.007159822072881748      747.6054167128051
0.007337530276402798      747.7773136047138
0.007515775110037768      747.9550650687986
0.007694910764868775      748.1386711050594
0.007875286184317232      748.3281317134969
0.008046142116827224      748.5748518980282
0.008215940175191578      748.8128015183651
0.008384978561345261      749.041980574508
0.008553559508611747      749.2623890664568
0.008721987712864422      749.4740269942113
0.008890568698188937      749.6768943577717
0.00905960716025268       749.8709911571377
0.009229405331972688      750.0563173923099
0.009400261414687729      750.2328730632877
0.009571115435747398      750.5286263371271
0.009740911572891598      750.7962100536972
0.009909948019402086      751.0356242129986
0.010078526999976944      751.246868815031
0.010246953201968763      751.4299438597942
0.010415532141122159      751.5848493472887
0.010584568505013912      751.711585277514
0.010754364518784467      751.8101516504702
0.010925218376364454      751.8805484661576
0.011105591682722255      752.0279655162257
0.01128472526622686       752.1320769090865
0.011462968058774099      752.192882644741
0.011640674239628768      752.2103827231884
0.011818201199823401      752.1845771444292
0.01199590741170419       752.1154659084638
0.012174150266116847      752.0030490152909
0.012353283941958112      751.8473264649114
0.012533657370585264      751.6482982573253
0.01271403176453574       751.6288646956028
0.012893166387683227      751.5580816042685
0.013071410176518557      751.4359489833224
0.013249117315197753      751.2624668327647
0.013426645199902413      751.037635152595
0.013604352308338922      750.7614539428137
0.01378259603687098       750.4339232034204
0.013961730570013379      750.0550429344153
0.014142104844781908      749.6248131357985
0.014312959944399205      749.2631567117475
0.014482757184992078      748.8787997763442
0.014651794764271453      748.4717423295888
0.014820374911240972      748.0419843714814
0.014988802317395246      747.5895259020218
0.01515738250242126       747.11436692121
0.015326420157607648      746.6165074290461
0.015496217511551624      746.0959474255299
0.015667072761367945      745.5526869106618
0.01583792791479403       745.0917351236875
0.016007725163749622      744.6369929972656
0.01617676270725794       744.1884605313967
0.01634534277588875       743.7461377260804
0.016513770062946447      743.310024581317
0.01668235009015449       742.880121097106
0.016851387551041475      742.4564272734477
0.017021184676619543      742.0389431103422
0.017192039666560827      741.6276686077895
0.017372413817338207      741.2946652370051
0.017551548228302124      740.9833192904096
0.017729791836073705      740.6936307680036
0.017907498824762332      740.4255996697867
0.018085026590318725      740.179225995759
0.018262733610032132      739.9545097459206
0.018440977279666457      739.7514509202713
0.018620111782963036      739.570049518811
0.018800486056004474      739.4103055415402
0.018980860449944497      739.503829157949
0.019159995073081745      739.6244155108253
0.019338238861906984      739.7720646001695
0.01951594600057618       739.9467764259817
0.019693473885270874      740.1485509882616
0.019871180993697383      740.3773882870092
0.020049424722219357      740.6332883222248
0.02022855925535152       740.916251093908
0.0204089335301096        741.2262766020591
0.02057978862980686       741.595985690588
0.020749585870478253      741.966460189865
0.020918623449835097      742.3377000998905
0.021087203596881453      742.7097054206645
0.021255631003112355      743.0824761521866
0.021424211188215206      743.4560122944572
0.021593248843479067      743.8303138474762
0.021763046197501558      744.2053808112433
0.02193390144739785       744.581213185759
0.022104756600747556      745.1065294729714
0.02227455384962815       745.6070237188177
0.02244359139306247       746.0826959232983
0.022612171461619885      746.5335460864131
0.022780598748604386      746.9595742081617
0.022949178775739036      747.3607802885449
0.02311821623655202       747.7371643275619
0.023288013362055097      748.088726325213
0.023458868351919994      748.4154662814982
0.02363924250270423       748.8091614584752
0.023818376913674867      749.1585444643317
0.023996620521453065      749.4636152990684
0.02417432751014825       749.724373962685
0.02435185527571118       749.9408204551813
0.024529562295431146      750.1129547765578
0.02470780596507209       750.240776926814
0.024886940468375387      750.32428690595
0.025067314741423676      750.3634847139659
