% Model:              brazing.mph
% Version:            COMSOL 5.3.0.223
% Date:               Oct 24 2018, 03:10
% Dimension:          1
% Nodes:              193
% Expressions:        1
% Description:        Line graph
% x                       Height
0                         619.5022873998121
1.6028433640637486E-4     619.5896424125709
3.201839556876346E-4      619.6691389869461
4.7982673004648776E-4     619.7407771229373
6.393411493738095E-4      619.8045568205449
7.988560137323205E-4      619.8604780797687
9.58500122107595E-4       619.9085409006087
0.0011184019611720658     619.9487452830649
0.0012786893978073315     619.9810912271373
0.0014692881782178572     620.0075815889728
0.0016592398034323465     620.0169722074239
0.0018487589083489172     620.0092630824905
0.00203806159906999       619.9844542141728
0.0022273647228667317     619.9425456024707
0.0024168851255237504     619.8835372473842
0.002606838908709185      619.8074291489132
0.0027974407000143733     619.714221307058
0.003000214284638094      619.5894704544572
0.0032022105766743216     619.4492791241506
0.003403687017647933      619.2936473161382
0.0036049030444305387     619.1225750304196
0.0038061191011872996     618.9360622669952
0.004007595631967136      618.7341090258649
0.00420959207329518       618.5167153070287
0.00441236586612622       618.2838811104865
0.004615139632985625      618.0216987781204
0.004817136048636202      617.7559558447592
0.005018612553936322      617.4866523104031
0.005219828585313435      617.2137881750518
0.005421044586718146      616.9373634387056
0.0056225210022172924     616.6573781013643
0.005824517268584787      616.373832163028
0.006027290827249049      616.0867256236968
0.006217890949519272      615.7880459637305
0.006407844130704021      615.5077144145661
0.0065973647866391935     615.2457309762028
0.00678666880286996       615.0020956486413
0.006975972806121895      614.7768084318812
0.007165493423165078      614.5698693259227
0.007355446539677438      614.3812783307658
0.007546046571713631      614.2110354464104
0.00770633524869351       614.0834515242373
0.007866237248851195      613.9734521427171
0.008025880956992212      613.8810373018496
0.008185395381580456      613.8062070016349
0.008344909844757132      613.748961242073
0.008504553668569658      613.709300023164
0.008664455861201733      613.6872233449077
0.008824744806995652      613.6827312073043
0.008985029143401957      613.6972994448381
0.009144928762683142      613.7337959165995
0.009304571537041926      613.7922206225888
0.009464085956369179      613.8725735628058
0.00962360082072762       613.9748547372504
0.009783244929102828      614.0990641459227
0.009943146768167231      614.2452017888229
0.010103434204802428      614.4132676659508
0.010294032985212885      614.6054626934367
0.010483984610427306      614.8174629515979
0.01067350371534381       615.0492684404337
0.010862806406064813      615.3008791599447
0.011052109529861487      615.5722951101305
0.011241629932518437      615.8635162909914
0.011431583715703804      616.1745427025271
0.011622185507008923      616.5053743447379
0.011824959091632737      616.8326897293166
0.012026955383669057      617.1525106029832
0.012228431824642762      617.4648369657376
0.01242964785142546       617.7696688175798
0.012630863908182311      618.0670061585099
0.012832340438962243      618.3568489885279
0.01303433688029038       618.6391973076335
0.013237110673121513      618.9140511158271
0.013439884439981065      619.164679797164
0.013641880855631786      619.395566132006
0.013843357360932049      619.6067101203531
0.014044573392309304      619.7981117622052
0.014245789393714157      619.9697710575622
0.014447265809213447      620.1216880064244
0.014649262075581083      620.2538626087915
0.01485203563424549       620.3662948646636
0.015042635756515686      620.4580068769268
0.015232588937700405      620.532719066807
0.015422109593635547      620.5904314343044
0.015611413609866287      620.6311439794189
0.015800717613118194      620.6548567021506
0.01599023823016135       620.6615696024994
0.01618019134667368       620.6512826804653
0.016370791378709844      620.6239959360485
0.016531080055689654      620.5747659519444
0.01669098205584727       620.5214476545342
0.016850625763988217      620.464041043818
0.017010140188576394      620.4025461197956
0.017169654651752998      620.3369628824671
0.017329298475565455      620.2672913318326
0.017489200668197463      620.1935314678917
0.01764948961399131       620.1156832906449
0.01780977395039525       620.007777069667
0.017969673569674088      619.8877322870496
0.018129316344030533      619.7555489427926
0.01828883076335545       619.6112270368963
0.01844834562771156       619.4547665693603
0.01860798973608443       619.2861675401848
0.018767891575146484      619.10542994937
0.018928179011779317      618.9125537969155
0.019118777792188433      618.6237728770216
0.019308729417401523      618.3125856629155
0.019498248522316707      617.9789921545971
0.019687551213036395      617.6229923520665
0.019876854336831753      617.2445862553236
0.02006637473948738       616.8437738643686
0.020256328522671414      616.4205551792012
0.020446930313975188      615.9749301998216
0.02064970389860279       615.4430735611348
0.02085170019064286       614.898400157507
0.02105317663162028       614.3409099889378
0.02125439265840668       613.7706030554275
0.021455608715167235      613.1874793569759
0.02165708524595088       612.5915388935834
0.021859081687282764      611.9827816652496
0.02206185548011769       611.3612076719746
0.022264629246980954      610.7434843907081
0.022466625662635346      610.1382507912803
0.022668102167939252      609.545506873691
0.022869318199320136      608.9652526379404
0.023070534200728618      608.3974880840283
0.023272010616231548      607.8422132119548
0.023474006882602858      607.2994280217199
0.02367678044127098       606.7691325133237
0.02386738056353977       606.2583999187381
0.024057333744723106      605.7827177634011
0.02424685440065687       605.3420860473124
0.024436158416886237      604.9365047704721
0.02462546242013677       604.5659739328802
0.024814983037178547      604.2304935345367
0.025004936153689494      603.9300635754415
0.025195536185724256      603.6646840555949
0.0253558248627017        603.4362264371273
0.025515726862856965      603.2377494609204
0.025675370570995573      603.0692531269741
0.02583488499558142       602.9307374352884
0.02599439945875569       602.8222023858633
0.02615404328256581       602.7436479786987
0.026313945475195465      602.6950742137949
0.026474234420986946      602.6764810911516
0.026634518757392422      602.6821389601143
0.02679441837667279       602.7142445320173
0.026954061151030752      602.7727978068605
0.02711357557035719       602.8577987846436
0.027273090434714816      602.9692474653668
0.027432734543089202      603.1071438490302
0.027592636382152785      603.2714879356337
0.02775292381878715       603.4622797251772
0.02794352259919713       603.6994775194111
0.02813347422441108       603.9705316014773
0.028322993329327112      604.2754419713758
0.028512296020047647      604.6142086291067
0.02870159914384385       604.9868315746697
0.028891119546500334      605.3933108080652
0.02908107332968523       605.8336463292931
0.029271675120989875      606.3078381383531
0.02947444870561504       606.8285799174791
0.029676444997652693      607.3611831538847
0.02987792143862772       607.9056478475696
0.030079137465411736      608.4619739985341
0.030280353522169904      609.0301616067779
0.030481830052951155      609.6102106723012
0.030683826494280624      610.2021211951039
0.030886600287113104      610.805893175186
0.03108937405397396       611.3988933504967
0.03129137046962597       611.9858239974014
0.03149284697492751       612.5666851159003
0.03169406300630604       613.1414767059935
0.03189527900771217       613.7101987676807
0.03209675542321274       614.2728513009621
0.03229875168958166       614.8294343058376
0.03250152524824737       615.3799477823073
0.03269212537051706       615.825615531484
0.03288207855170127       616.2471421009042
0.033071599207635916      616.6445274905675
0.033260903223866156      617.0177717004742
0.033450207227117564      617.3668747306243
0.033639727844160215      617.6918365810177
0.03382968096067204       617.9926572516544
0.034020280992707694      618.2693367425344
0.034180569669686675      618.4683685870848
0.03434047166984347       618.6545681423806
0.0345001153779836        618.827935408422
0.03465962980257096       618.988470385209
0.03481914426574675       619.1361730727414
0.034978788089558385      619.2710434710194
0.03513869028218957       619.393081580043
0.035298979227982585      619.5022873998121
