% Model:              brazing.mph
% Version:            COMSOL 5.3.0.223
% Date:               Oct 24 2018, 05:23
% Dimension:          1
% Nodes:              225
% Expressions:        1
% Description:        Line graph
% x                       Height
0                         761.6850366277519
2.3022181212578358E-4     761.5047922869031
4.5999325066962656E-4     761.2911463704364
6.894940081029028E-4      761.044098878352
9.189044129547812E-4      760.7636498106496
0.001148405006736289      760.4497991673296
0.0013781761183620641     760.1025469483913
0.001608397441069865      759.7218931538351
0.001839314118928521      758.9076308312852
0.0020697760201574002     758.0913890699368
0.002299964597801726      757.2731678697891
0.0025300619515304015     756.4529672308423
0.0027602503975112853     755.6307871530972
0.0029907120357255193     754.8066276365527
0.003221628319839081      753.9804886812093
0.0034518885683530987     752.921236114291
0.0036816980188178403     751.8465258224929
0.003911236592567028      750.7563578058152
0.004140684848157368      749.650732064258
0.004370223557282477      748.5296485978215
0.004600033278179856      747.3931074065048
0.004830293931548535      746.2411084903088
0.005060048526376791      744.9019120604512
0.005289355629682316      743.5720945073874
0.005518393850920054      742.2516558311179
0.005747342428834         740.9405960316424
0.00597638081262499       739.6389151089613
0.006205688240655705      738.3466130630741
0.006435443321622868      737.0636898939811
0.006665339619110656      735.7042667957098
0.006894787442849326      734.3652461785437
0.007123965728649401      733.0466280424821
0.007353054043912613      731.7484123875257
0.007582232167524012      730.4705992136745
0.007811679667266285      729.2131885209278
0.008041575479707366      727.9761803092864
0.008271887219609135      726.7397827379929
0.008501747728772392      725.5439093422715
0.008731337046705121      724.3885601221223
0.008960835851156599      723.2737350775451
0.009190425033567954      722.1994342085403
0.009420285272008154      721.1656575151073
0.009650596606620833      720.1724049972468
0.009881512912836019      719.216359397745
0.010111974573021956      718.318300448827
0.010342163040896366      717.4782281504927
0.010572260416492441      716.6961425027423
0.010802449016030204      715.9720435055759
0.011032910939230619      715.305931158993
0.011263827639190652      714.697805462994
0.011494048967061755      714.1230663385835
0.011723820083820682      713.6364278976392
0.011953320682717213      713.2378901401605
0.012182731092678062      712.9274530661479
0.012412231855226382      712.7051166756016
0.012642003298903411      712.5708809685209
0.012872225116192546      712.5247459449063
0.013102446994778118      712.3213023829993
0.013332218499393473      712.2294516679689
0.01356171932266464       712.2491937998147
0.013791129793276359      712.3805287785375
0.01402063045289555       712.6234566041371
0.014250401630592404      712.977977276613
0.014480623019759359      713.4440907959657
0.014711539835704642      713.7336224274245
0.014942001874208778      714.1176309733183
0.015172190588640395      714.596116433647
0.01540228807899374       715.1690788084104
0.015632476661762654      715.8365180976092
0.015862938437253588      716.5984343012425
0.01609385485945594       717.4548274193108
0.016324115336228646      718.2289281563053
0.016553925013622208      719.0484450867336
0.016783463813500554      719.9133782105953
0.017012912294953733      720.8237275278906
0.01724245123020976       721.7794930386199
0.01747226117803945       722.7806747427824
0.017702522059672054      723.8272726403786
0.017932276794613372      724.8874452194066
0.018161584037218948      725.9760209861442
0.018390622397267263      727.0929999405918
0.018619571113827754      728.2383820827495
0.018848609636427344      729.4121674126174
0.019077917203754128      730.6143559301946
0.019307672424828403      731.8449476354822
0.019537568573699274      732.9873382241773
0.01976701624968263       734.1435343501946
0.019996194388245302      735.3135360135337
0.020225282556443316      736.497343214195
0.020454460532815345      737.6949559521786
0.02068390788479834       738.9063742274838
0.020913803548616574      740.1315980401112
0.02114411498977932       741.1466438044993
0.021373975201947604      742.1707461374825
0.02160356422393484       743.203905039061
0.02183306273279162       744.2461205092347
0.02206265161925901       745.2973925480042
0.02229251156070728       746.3577211553684
0.02252282259658549       747.427106331328
0.022753738766914562      748.1651730718953
0.022984200292012823      748.898013588624
0.023214388625279938      749.6256278815138
0.023444485866429166      750.3480159505649
0.023674674331359946      751.0651777957777
0.023905136119473275      751.7771134171511
0.024136052683548088      752.483822814686
0.024366274021741702      752.7819597854096
0.024596045148762867      753.0755477020438
0.024825545757885373      753.3645865645882
0.02505495617806012       753.6490763730434
0.02528445695083446       753.9290171274096
0.025514228404773787      754.2044088276858
0.025744450232385536      754.4752514738728
0.025974672267095825      754.3466542851949
0.026204443926923768      754.1938076445055
0.02643394490485871       754.0167115518049
0.02666335552995085       753.8153660070931
0.026892856344233315      753.5897710103703
0.02712262767714175       753.3399265616362
0.02735284922243193       753.0658326608908
0.027583766528201624      752.3443803798651
0.027814229053652367      751.610699949197
0.028044418253299775      750.8647913688857
0.02827451622829193       750.1066546389318
0.028504705296278778      749.3362897593353
0.028735167558720572      748.5536967300957
0.028966084470753738      747.7588755512136
0.029196345605491433      746.7733949199056
0.02942615593701711       745.7507201012131
0.02965569538872289       744.6908510951351
0.029885144521236064      743.593787901672
0.030114684108324883      742.4595305208244
0.030344494710297387      741.2880789525911
0.030574756249911007      740.079433196973
0.030804511377321087      738.7759155935612
0.031033819010118435      737.4607855367672
0.031262857758987544      736.1340430265909
0.03149180686390927       734.7956880630326
0.031720845775323685      733.4457206460924
0.031950153732830305      732.0841407757697
0.032179909346355486      730.710948452065
0.0324098051544111        729.3577680124658
0.032639252491552244      728.0132256603721
0.03286843029245836       726.6773213957836
0.0330975181233935        725.3500552187005
0.03332669576210278       724.031427129123
0.03355614277523119       722.7214371270505
0.033786038098215655      721.4200852124836
0.034016348759356954      720.18009185981
0.03424620819605658       718.9814496068727
0.034475796445315066      717.8241584536719
0.03470529418235937       716.7082184002072
0.03493488229610333       715.6336294464794
0.035164741462093585      714.6003915924874
0.03539505171796626       713.608504838232
0.035625967353597694      712.6922813740885
0.03585642834714083       711.8431773768885
0.036086616150743635      711.061192846632
0.03631671286286018       710.3463277833191
0.03654690079812825       709.6985821869499
0.036777362054689705      709.117956057524
0.03700827808407173       708.6044493950418
0.03723849938140827       708.1565946239334
0.03746827046781093       707.8043168239399
0.03769777103645843       707.5476159950615
0.03792718141620601       707.3864921372982
0.0381566821485052        707.3209452506504
0.03838645356182577       707.3509753351173
0.03861667534858004       707.4765823906994
0.038846895274787324      707.5096573955378
0.039076664838430766      707.6584972665278
0.03930616372759302       707.9231020036696
0.03953557226638858       708.3034716069634
0.039765070991905134      708.7996060764093
0.039994840228642616      709.4115054120067
0.040225059665450036      710.1391696137562
0.04045597761776665       710.760224204641
0.04068644078597457       711.475523513541
0.04091663062609736       712.2850675404563
0.041146729240799984      713.188856285387
0.04137691894925231       714.186889748333
0.04160738185443156       715.279167929294
0.04183829941298208       716.4656908282703
0.04206856149768976       717.6088185202968
0.04229837277362926       718.7938159422054
0.04252791316640542       720.0206830939953
0.04275736323887129       721.2894199756674
0.04298690376702529       722.6000265872216
0.04321671531340127       723.952502928657
0.04344697780296935       725.3468489999747
0.043676731016186174      726.805944997328
0.04390603674591497       728.2739372823764
0.04413507359840861       729.7508258551197
0.04436402080919017       731.2366107155578
0.044593057824233256      732.7312918636912
0.04482236387867965       734.234869299519
0.045052117578024006      735.747343023042
0.045282012653644836      737.2684287050189
0.045511459262636354      738.7676962268122
0.04574063633797325       740.2451455884217
0.04596972344420469       741.7007767898477
0.046198900357357554      743.1345898310904
0.046428346642361965      744.546584712149
0.04665824123294997       745.9367614330241
0.04688855484177433       747.2375385836494
0.04711841720894409       748.5066433301326
0.04734800837831597       749.7440756724741
0.04757750903201372       750.9498356106732
0.047807100065861544      752.1239231447306
0.04803696216230292       753.2663382746456
0.04826727536583021       754.3770810004188
0.048498193048686675      755.2708817580823
0.048728656077441146      756.1272203422628
0.04895884590902903       756.94609675296
0.04918894464672031       757.7275109901742
0.04941913460997818       758.4714630539055
0.04964959790176041       759.1779529441532
0.04988051597838159       759.8469806609181
0.05011073543954296       760.1728752274065
0.0503405047004922        760.4776647463433
0.05057000345013497       760.7613492177283
0.05079941201302823       761.0239286415616
0.05102891092631677       761.2654030178436
0.05125868051417213       761.4857723465733
0.051488900464733596      761.6850366277519
