% Model:              brazing.mph
% Version:            COMSOL 5.3.0.223
% Date:               Oct 24 2018, 01:03
% Dimension:          1
% Nodes:              193
% Expressions:        1
% Description:        Line graph
% x                       Height
0                         634.1970558453049
1.6028433640637486E-4     634.2914821678706
3.201839556876346E-4      634.3777601108851
4.7982673004648776E-4     634.4558896743486
6.393411493738095E-4      634.5258708582609
7.988560137323205E-4      634.5877036626221
9.58500122107595E-4       634.6413880874323
0.0011184019611720658     634.6869241326914
0.0012786893978073315     634.7243117983994
0.0014692881782178572     634.7565597358748
0.0016592398034323465     634.7714026103016
0.0018487589083489172     634.76884042168
0.00203806159906999       634.7488731700099
0.0022273647228667317     634.7115008552913
0.0024168851255237504     634.6567234775242
0.002606838908709185      634.5845410367086
0.0027974407000143733     634.4949535328444
0.003000214284638094      634.3743566770049
0.0032022105766743216     634.2376889857634
0.003403687017647933      634.0849504591198
0.0036049030444305387     633.9161410970744
0.0038061191011872996     633.7312608996269
0.004007595631967136      633.5303098667775
0.00420959207329518       633.3132879985262
0.00441236586612622       633.080195294873
0.004615139632985625      632.8161380748708
0.004817136048636202      632.5485749331468
0.005018612553936322      632.2775058697014
0.005219828585313435      632.0029308845344
0.005421044586718146      631.7248499776458
0.0056225210022172924     631.4432631490358
0.005824517268584787      631.1581703987041
0.006027290827249049      630.8695717266509
0.006217890949519272      630.5701882933728
0.006407844130704021      630.2889265431214
0.0065973647866391935     630.0257864758961
0.00678666880286996       629.7807680916974
0.006975972806121895      629.553871390525
0.007165493423165078      629.345096372379
0.007355446539677438      629.1544430372594
0.007546046571713631      628.9819113851663
0.00770633524869351       628.8522791900016
0.007866237248851195      628.7404012415758
0.008025880956992212      628.6462775398888
0.008185395381580456      628.5699080849407
0.008344909844757132      628.5112928767314
0.008504553668569658      628.470431915261
0.008664455861201733      628.4473252005295
0.008824744806995652      628.4419727325368
0.008985029143401957      628.4558049082652
0.009144928762683142      628.491387629721
0.009304571537041926      628.5487208969038
0.009464085956369179      628.6278047098139
0.00962360082072762       628.7286390684511
0.009783244929102828      628.8512239728155
0.009943146768167231      628.9955594229071
0.010103434204802428      629.161645418726
0.010294032985212885      629.3533210171753
0.010483984610427306      629.564517159603
0.01067350371534381       629.7952338460094
0.010862806406064813      630.0454710763943
0.011052109529861487      630.3152288507576
0.011241629932518437      630.6045071690995
0.011431583715703804      630.9133060314199
0.011622185507008923      631.2416254377189
0.011824959091632737      631.5653186420294
0.012026955383669057      631.8817619072788
0.012228431824642762      632.1909552334677
0.01242964785142546       632.4928986205955
0.012630863908182311      632.7875920686625
0.012832340438962243      633.0750355776687
0.01303433688029038       633.3552291476141
0.013237110673121513      633.6281727784985
0.013439884439981065      633.8733837019205
0.013641880855631786      634.0988655723071
0.013843357360932049      634.3046183896585
0.014044573392309304      634.4906421539745
0.014245789393714157      634.6569368652551
0.014447265809213447      634.8035025235006
0.014649262075581083      634.9303391287108
0.01485203563424549       635.0374466808855
0.015042635756515686      635.1234088387595
0.015232588937700405      635.1922192666882
0.015422109593635547      635.2438779646716
0.015611413609866287      635.2783849327099
0.015800717613118194      635.2957401708028
0.01599023823016135       635.2959436789506
0.01618019134667368       635.2789954571532
0.016370791378709844      635.2448955054106
0.016531080055689654      635.1899526172402
0.01669098205584727       635.1306449082591
0.016850625763988217      635.0669723784678
0.017010140188576394      634.9989350278656
0.017169654651752998      634.926532856453
0.017329298475565455      634.84976586423
0.017489200668197463      634.7686340511963
0.01764948961399131       634.6831374173521
0.01780977395039525       634.5678312473534
0.017969673569674088      634.4401259888153
0.018129316344030533      634.3000216417377
0.01828883076335545       634.1475182061206
0.01844834562771156       633.9826156819639
0.01860798973608443       633.8053140692679
0.018767891575146484      633.6156133680323
0.018928179011779317      633.4135135782572
0.019118777792188433      633.1164553037432
0.019308729417401523      632.7969453872165
0.019498248522316707      632.4549838286771
0.019687551213036395      632.0905706281249
0.019876854336831753      631.7037057855598
0.02006637473948738       631.2943893009821
0.020256328522671414      630.8626211743915
0.020446930313975188      630.4084014057883
0.02064970389860279       629.8629843972205
0.02085170019064286       629.3050238408467
0.02105317663162028       628.7345197366667
0.02125439265840668       628.1514720846807
0.021455608715167235      627.5558808848886
0.02165708524595088       626.9477461372903
0.021859081687282764      626.3270678418859
0.02206185548011769       625.6938459986754
0.022264629246980954      625.0600840602318
0.022466625662635346      624.4395645157315
0.022668102167939252      623.8322873651742
0.022869318199320136      623.2382526085601
0.023070534200728618      622.6574602458891
0.023272010616231548      622.0899102771612
0.023474006882602858      621.5356027023763
0.02367678044127098       620.9945375215347
0.02386738056353977       620.4737254693484
0.024057333744723106      619.988604495744
0.02424685440065687       619.5391746007211
0.024436158416886237      619.1254357842801
0.02462546242013677       618.7473880464207
0.024814983037178547      618.4050313871431
0.025004936153689494      618.0983658064473
0.025195536185724256      617.8273913043332
0.0253558248627017        617.5956536274465
0.025515726862856965      617.3944573888461
0.025675370570995573      617.2238025885324
0.02583488499558142       617.083689226505
0.02599439945875569       616.9741173027642
0.02615404328256581       616.8950868173098
0.026313945475195465      616.8465977701419
0.026474234420986946      616.8286501612604
0.026634518757392422      616.8354392066161
0.02679441837667279       616.8693917360741
0.026954061151030752      616.9305077496343
0.02711357557035719       617.0187872472968
0.027273090434714816      617.1342302290616
0.027432734543089202      617.2768366949286
0.027592636382152785      617.446606644898
0.02775292381878715       617.6435400789696
0.02794352259919713       617.8893240416213
0.02813347422441108       618.1697213314403
0.028322993329327112      618.4847319484268
0.028512296020047647      618.8343558925804
0.02870159914384385       619.2185931639016
0.028891119546500334      619.63744376239
0.02908107332968523       620.0909076880457
0.029271675120989875      620.5789849408688
0.02947444870561504       621.1126731800368
0.029676444997652693      621.6592352930015
0.02987792143862772       622.2186712797634
0.030079137465411736      622.790981140322
0.030280353522169904      623.3761648746776
0.030481830052951155      623.97422248283
0.030683826494280624      624.5851539647795
0.030886600287113104      625.2089593205258
0.03108937405397396       625.8197765262096
0.03129137046962597       626.4241250808391
0.03149284697492751       627.022004984414
0.03169406300630604       627.6134162369348
0.03189527900771217       628.198358838401
0.03209675542321274       628.7768327888128
0.03229875168958166       629.3488380881703
0.03250152524824737       629.9143747364733
0.03269212537051706       630.3735350282593
0.03288207855170127       630.8082475990415
0.033071599207635916      631.2185124488199
0.033260903223866156      631.6043295775944
0.033450207227117564      631.9656989853652
0.033639727844160215      632.3026206721321
0.03382968096067204       632.6150946378954
0.034020280992707694      632.9031208826547
0.034180569669686675      633.1105925193291
0.03434047166984347       633.3049985084768
0.0345001153779836        633.486338850098
0.03465962980257096       633.6546135441926
0.03481914426574675       633.8098225907605
0.034978788089558385      633.9519659898019
0.03513869028218957       634.0810437413168
0.035298979227982585      634.1970558453049
