% Model:              brazing.mph
% Version:            COMSOL 5.3.0.223
% Date:               Oct 24 2018, 06:36
% Dimension:          1
% Nodes:              193
% Expressions:        1
% Description:        Line graph
% x                       Height
0                         612.3641118657063
1.6028433640637486E-4     612.4498664906785
3.201839556876346E-4      612.5279292764712
4.7982673004648776E-4     612.5983002230848
6.393411493738095E-4      612.6609793305192
7.988560137323205E-4      612.7159665987745
9.58500122107595E-4       612.7632620278504
0.0011184019611720658     612.802865617747
0.0012786893978073315     612.8347773684644
0.0014692881782178572     612.8610072615094
0.0016592398034323465     612.8705575257723
0.0018487589083489172     612.8634281612528
0.00203806159906999       612.8396191679515
0.0022273647228667317     612.7991305458679
0.0024168851255237504     612.7419622950022
0.002606838908709185      612.6681144153544
0.0027974407000143733     612.5775869069245
0.003000214284638094      612.4574066082619
0.0032022105766743216     612.3221298057239
0.003403687017647933      612.1717564993106
0.0036049030444305387     612.006286689022
0.0038061191011872996     611.825720374858
0.004007595631967136      611.6300575568185
0.00420959207329518       611.4192982349037
0.00441236586612622       611.1934424091137
0.004615139632985625      610.9392417135485
0.004817136048636202      610.6816403528726
0.005018612553936322      610.4206383270856
0.005219828585313435      610.1562356361877
0.005421044586718146      609.8884322801788
0.0056225210022172924     609.6172282590591
0.005824517268584787      609.3426235728283
0.006027290827249049      609.0646182214866
0.006217890949519272      608.7761736271308
0.006407844130704021      608.5053873733619
0.0065973647866391935     608.2522594601799
0.00678666880286996       608.0167898875848
0.006975972806121895      607.7989786555765
0.007165493423165078      607.5988257641552
0.007355446539677438      607.4163312133207
0.007546046571713631      607.2514950030733
0.00770633524869351       607.1276795796564
0.007866237248851195      607.0209336567702
0.008025880956992212      606.9312572344149
0.008185395381580456      606.8586503125904
0.008344909844757132      606.8031128912967
0.008504553668569658      606.7646449705338
0.008664455861201733      606.7432465503017
0.008824744806995652      606.7389176306004
0.008985029143401957      606.7529768881811
0.009144928762683142      606.7881653139486
0.009304571537041926      606.844482907903
0.009464085956369179      606.9219296700438
0.00962360082072762       607.0205056003715
0.009783244929102828      607.1402106988859
0.009943146768167231      607.2810449655871
0.010103434204802428      607.4430084004749
0.010294032985212885      607.628577678055
0.010483984610427306      607.8332135871723
0.01067350371534381       608.0569161278269
0.010862806406064813      608.2996853000186
0.011052109529861487      608.5615211037476
0.011241629932518437      608.8424235390138
0.011431583715703804      609.1423926058172
0.011622185507008923      609.4614283041578
0.011824959091632737      609.7772822681791
0.012026955383669057      610.0860036769556
0.012228431824642762      610.3875925304874
0.01242964785142546       610.6820488287747
0.012630863908182311      610.9693725718172
0.012832340438962243      611.2495637596151
0.01303433688029038       611.5226223921683
0.013237110673121513      611.7885484694768
0.013439884439981065      612.0306084677022
0.013641880855631786      612.2535969685454
0.013843357360932049      612.4575139720062
0.014044573392309304      612.6423594780847
0.014245789393714157      612.8081334867809
0.014447265809213447      612.9548359980948
0.014649262075581083      613.0824670120263
0.01485203563424549       613.1910265285755
0.015042635756515686      613.2797634913406
0.015232588937700405      613.3519405621373
0.015422109593635547      613.4075577409653
0.015611413609866287      613.446615027825
0.015800717613118194      613.4691124227163
0.01599023823016135       613.4750499256389
0.01618019134667368       613.4644275365932
0.016370791378709844      613.437245255579
0.016531080055689654      613.3890164353666
0.01669098205584727       613.3367271796213
0.016850625763988217      613.2803774883432
0.017010140188576394      613.2199673615321
0.017169654651752998      613.1554967991881
0.017329298475565455      613.0869658013112
0.017489200668197463      613.0143743679014
0.01764948961399131       612.9377224989587
0.01780977395039525       612.8320000026074
0.017969673569674088      612.7144694319675
0.018129316344030533      612.5851307870388
0.01828883076335545       612.4439840678215
0.01844834562771156       612.2910292743154
0.01860798973608443       612.1262664065208
0.018767891575146484      611.9496954644375
0.018928179011779317      611.7613164480654
0.019118777792188433      611.4804175921287
0.019308729417401523      611.1778161135163
0.019498248522316707      610.8535120122283
0.019687551213036395      610.5075052882646
0.019876854336831753      610.1397959416254
0.02006637473948738       609.7503839723104
0.020256328522671414      609.3392693803198
0.020446930313975188      608.9064521656536
0.02064970389860279       608.390344609376
0.02085170019064286       607.8619370986979
0.02105317663162028       607.3212296336195
0.02125439265840668       606.7682222141407
0.021455608715167235      606.2029148402614
0.02165708524595088       605.6253075119819
0.021859081687282764      605.0354002293019
0.02206185548011769       604.4331929922216
0.022264629246980954      603.8341117971138
0.022466625662635346      603.2472404230083
0.022668102167939252      602.6725788699051
0.022869318199320136      602.1101271378043
0.023070534200728618      601.5598852267058
0.023272010616231548      601.0218531366097
0.023474006882602858      600.4960308675159
0.02367678044127098       599.9824184194244
0.02386738056353977       599.4881092074735
0.024057333744723106      599.0276932831765
0.02424685440065687       598.6011706465339
0.024436158416886237      598.2085412975453
0.02462546242013677       597.8498052362108
0.024814983037178547      597.5249624625305
0.025004936153689494      597.2340129765045
0.025195536185724256      596.9769567781325
0.0253558248627017        596.755930991888
0.025515726862856965      596.5639390203188
0.025675370570995573      596.4009808634254
0.02583488499558142       596.2670565212075
0.02599439945875569       596.1621659936651
0.02615404328256581       596.0863092807982
0.026313945475195465      596.0394863826069
0.026474234420986946      596.0216972990912
0.026634518757392422      596.0271561229658
0.02679441837667279       596.0583177832419
0.026954061151030752      596.1151822799194
0.02711357557035719       596.1977496129985
0.027273090434714816      596.306019782479
0.027432734543089202      596.4399927883611
0.027592636382152785      596.5996686306446
0.02775292381878715       596.7850473093296
0.02794352259919713       597.0154050678368
0.02813347422441108       597.2785588487085
0.028322993329327112      597.5745086519446
0.028512296020047647      597.9032544775454
0.02870159914384385       598.2647963255107
0.028891119546500334      598.6591341958404
0.02908107332968523       599.0862680885347
0.029271675120989875      599.5461980035934
0.02947444870561504       600.0509144705038
0.029676444997652693      600.5672932761598
0.02987792143862772       601.0953344205614
0.030079137465411736      601.6350379037084
0.030280353522169904      602.186403725601
0.030481830052951155      602.7494318862392
0.030683826494280624      603.324122385623
0.030886600287113104      603.9104752237523
0.03108937405397396       604.4862488054757
0.03129137046962597       605.0559935381449
0.03149284697492751       605.6197094217597
0.03169406300630604       606.1773964563201
0.03189527900771217       606.7290546418263
0.03209675542321274       607.2746839782782
0.03229875168958166       607.8142844656755
0.03250152524824737       608.3478561040188
0.03269212537051706       608.7813176408881
0.03288207855170127       609.1913519656819
0.033071599207635916      609.5779590783999
0.033260903223866156      609.9411389790421
0.033450207227117564      610.2808916676087
0.033639727844160215      610.5972171440995
0.03382968096067204       610.8901154085148
0.034020280992707694      611.1595864608543
0.034180569669686675      611.3538017103591
0.03434047166984347       611.5355456530357
0.0345001153779836        611.7048182888844
0.03465962980257096       611.8616196179049
0.03481914426574675       612.0059496400974
0.034978788089558385      612.1378083554617
0.03513869028218957       612.2571957639981
0.035298979227982585      612.3641118657063
