% Model:              brazing.mph
% Version:            COMSOL 5.3.0.223
% Date:               Oct 24 2018, 00:57
% Dimension:          1
% Nodes:              193
% Expressions:        1
% Description:        Line graph
% x                       Height
0                         639.020925624691
1.6028433640637486E-4     639.0959300587331
3.201839556876346E-4      639.1638100559755
4.7982673004648776E-4     639.2245656164181
6.393411493738095E-4      639.278196740061
7.988560137323205E-4      639.3247034269043
9.58500122107595E-4       639.364085676948
0.0011184019611720658     639.3963434901918
0.0012786893978073315     639.421476866636
0.0014692881782178572     639.4388161310023
0.0016592398034323465     639.4386720509978
0.0018487589083489172     639.4210446266223
0.00203806159906999       639.3859338578761
0.0022273647228667317     639.3333397447591
0.0024168851255237504     639.2632622872712
0.002606838908709185      639.1757014854126
0.0027974407000143733     639.0706573391831
0.003000214284638094      638.9376302276556
0.0032022105766743216     638.7889328027778
0.003403687017647933      638.62456506455
0.0036049030444305387     638.4445270129717
0.0038061191011872996     638.2488186480431
0.004007595631967136      638.0374399697643
0.00420959207329518       637.8103909781352
0.00441236586612622       637.5676716731557
0.004615139632985625      637.2930622523661
0.004817136048636202      637.0147624582551
0.005018612553936322      636.7327722908226
0.005219828585313435      636.4470917500689
0.005421044586718146      636.1577208359938
0.0056225210022172924     635.8646595485974
0.005824517268584787      635.5679078878796
0.006027290827249049      635.2674658538406
0.006217890949519272      634.9549698994753
0.006407844130704021      634.6618918051724
0.0065973647866391935     634.388231570932
0.00678666880286996       634.1339891967542
0.006975972806121895      633.8991646826388
0.007165493423165078      633.683758028586
0.007355446539677438      633.4877692345956
0.007546046571713631      633.3111983006678
0.00770633524869351       633.179926605723
0.007866237248851195      633.0669043701434
0.008025880956992212      632.9721315939289
0.008185395381580456      632.8956082770793
0.008344909844757132      632.8373344195948
0.008504553668569658      632.7973100214754
0.008664455861201733      632.775535082721
0.008824744806995652      632.7720096033318
0.008985029143401957      632.7894157969245
0.009144928762683142      632.8297593619153
0.009304571537041926      632.8930402983043
0.009464085956369179      632.9792586060914
0.00962360082072762       633.0884142852767
0.009783244929102828      633.2205073358601
0.009943146768167231      633.3755377578417
0.010103434204802428      633.5535055512214
0.010294032985212885      633.7564449480088
0.010483984610427306      633.9804257084888
0.01067350371534381       634.2254478326616
0.010862806406064813      634.4915113205273
0.011052109529861487      634.7786161720857
0.011241629932518437      635.0867623873366
0.011431583715703804      635.4159499662804
0.011622185507008923      635.7661789089169
0.011824959091632737      636.1140699962781
0.012026955383669057      636.4539601228215
0.012228431824642762      636.785849288547
0.01242964785142546       637.1097374934545
0.012630863908182311      637.4256247375444
0.012832340438962243      637.7335110208161
0.01303433688029038       638.03339634327
0.013237110673121513      638.3252807049063
0.013439884439981065      638.5921077451435
0.013641880855631786      638.8384379280359
0.013843357360932049      639.0642712535839
0.014044573392309304      639.2696077217872
0.014245789393714157      639.454447332646
0.014447265809213447      639.6187900861603
0.014649262075581083      639.7626359823299
0.01485203563424549       639.8859850211551
0.015042635756515686      639.9907310723801
0.015232588937700405      640.0780976644345
0.015422109593635547      640.1480847973183
0.015611413609866287      640.2006924710315
0.015800717613118194      640.2359206855739
0.01599023823016135       640.2537694409458
0.01618019134667368       640.2542387371469
0.016370791378709844      640.2373285741775
0.016531080055689654      640.1957018876194
0.01669098205584727       640.1510685847883
0.016850625763988217      640.1034286656843
0.017010140188576394      640.0527821303074
0.017169654651752998      639.9991289786574
0.017329298475565455      639.9424692107344
0.017489200668197463      639.8828028265385
0.01764948961399131       639.8201298260695
0.01780977395039525       639.7228578278863
0.017969673569674088      639.6136231477888
0.018129316344030533      639.4924257857772
0.01828883076335545       639.3592657418513
0.01844834562771156       639.2141430160115
0.01860798973608443       639.0570576082572
0.018767891575146484      638.8880095185889
0.018928179011779317      638.7069987470063
0.019118777792188433      638.4246331233383
0.019308729417401523      638.1188303496164
0.019498248522316707      637.7895904258403
0.019687551213036395      637.4369133520105
0.019876854336831753      637.0607991281267
0.02006637473948738       636.6612477541889
0.020256328522671414      636.2382592301972
0.020446930313975188      635.7918335561516
0.02064970389860279       635.2606072551472
0.02085170019064286       634.715842104065
0.02105317663162028       634.1575381029049
0.02125439265840668       633.5856952516672
0.021455608715167235      633.0003135503515
0.02165708524595088       632.4013929989583
0.021859081687282764      631.7889335974871
0.02206185548011769       631.1629353459382
0.022264629246980954      630.5429407116982
0.022466625662635346      629.9349415409815
0.022668102167939252      629.3389378337881
0.022869318199320136      628.7549295901181
0.023070534200728618      628.1829168099713
0.023272010616231548      627.622899493348
0.023474006882602858      627.074877640248
0.02367678044127098       626.5388512506713
0.02386738056353977       626.0223288636475
0.024057333744723106      625.5412338798326
0.02424685440065687       625.0955662992263
0.024436158416886237      624.6853261218289
0.02462546242013677       624.3105133476403
0.024814983037178547      623.9711279766605
0.025004936153689494      623.6671700088895
0.025195536185724256      623.3986394443273
0.0253558248627017        623.1667080811179
0.025515726862856965      622.9649135559602
0.025675370570995573      622.7932558688536
0.02583488499558142       622.6517350197986
0.02599439945875569       622.5403510087949
0.02615404328256581       622.4591038358426
0.026313945475195465      622.4079935009418
0.026474234420986946      622.3870200040922
0.026634518757392422      622.3915711915205
0.02679441837667279       622.4224552814812
0.026954061151030752      622.4796722739742
0.02711357557035719       622.5632221689996
0.027273090434714816      622.6731049665573
0.027432734543089202      622.8093206666472
0.027592636382152785      622.9718692692695
0.02775292381878715       623.1607507744241
0.02794352259919713       623.3965053545847
0.02813347422441108       623.6663823345333
0.028322993329327112      623.9703817142697
0.028512296020047647      624.308503493794
0.02870159914384385       624.6807476731061
0.028891119546500334      625.0871142522061
0.02908107332968523       625.5276032310938
0.029271675120989875      626.0022146097695
0.02947444870561504       626.5260414546727
0.029676444997652693      627.060932029865
0.02987792143862772       627.6068863353461
0.030079137465411736      628.1639043711161
0.030280353522169904      628.7319861371752
0.030481830052951155      629.3111316335231
0.030683826494280624      629.9013408601602
0.030886600287113104      630.5026138170861
0.03108937405397396       631.0926467010903
0.03129137046962597       631.6760184780346
0.03149284697492751       632.2527291479192
0.03169406300630604       632.8227787107439
0.03189527900771217       633.3861671665088
0.03209675542321274       633.9428945152139
0.03229875168958166       634.4929607568591
0.03250152524824737       635.0363658914445
0.03269212537051706       635.4795472755023
0.03288207855170127       635.8972689523138
0.033071599207635916      636.2895309218787
0.033260903223866156      636.6563331841971
0.033450207227117564      636.9976757392691
0.033639727844160215      637.3135585870943
0.03382968096067204       637.6039817276733
0.034020280992707694      637.8689451610055
0.034180569669686675      638.0569172062686
0.03434047166984347       638.2323251123023
0.0345001153779836        638.3951688791069
0.03465962980257096       638.5454485066822
0.03481914426574675       638.6831639950283
0.034978788089558385      638.8083153441451
0.03513869028218957       638.9209025540326
0.035298979227982585      639.020925624691
