% Model:              brazing.mph
% Version:            COMSOL 5.3.0.223
% Date:               Oct 24 2018, 06:43
% Dimension:          1
% Nodes:              225
% Expressions:        1
% Description:        Line graph
% x                       Height
0                         952.7924547527851
2.3022181212578358E-4     952.576848913678
4.5999325066962656E-4     952.3186840623938
6.894940081029028E-4      952.0179601989327
9.189044129547812E-4      951.674677323295
0.001148405006736289      951.2888354354806
0.0013781761183620641     950.8604345354889
0.001608397441069865      950.3894746233208
0.001839314118928521      949.4579212445373
0.0020697760201574002     948.5163805466965
0.002299964597801726      947.5648525297978
0.0025300619515304015     946.6033371938421
0.0027602503975112853     945.6318345388289
0.0029907120357255193     944.6503445647578
0.003221628319839081      943.6588672716294
0.0034518885683530987     942.4160251687271
0.0036816980188178403     941.151416789154
0.003911236592567028      939.8650421329104
0.004140684848157368      938.5569011999954
0.004370223557282477      937.2269939904103
0.004600033278179856      935.8753205041538
0.004830293931548535      934.5018807412267
0.005060048526376791      932.9319707961948
0.005289355629682316      931.3693284895802
0.005518393850920054      929.8139538213824
0.005747342428834         928.2658467916016
0.00597638081262499       926.7250074002378
0.006205688240655705      925.1914356472909
0.006435443321622868      923.6651315327609
0.006665339619110656      922.0584008742243
0.006894787442849326      920.4734030243441
0.007123965728649401      918.9101379831205
0.007353054043912613      917.3686057505537
0.007582232167524012      915.848806326644
0.007811679667266285      914.3507397113902
0.008041575479707366      912.8744059047937
0.008271887219609135      911.3991040745624
0.008501747728772392      909.9705021995236
0.008731337046705121      908.5886002796766
0.008960835851156599      907.2533983150221
0.009190425033567954      905.9648963055598
0.009420285272008154      904.7230942512894
0.009650596606620833      903.5279921522114
0.009881512912836019      902.3741620341717
0.010111974573021956      901.2882584520538
0.010342163040896366      900.270281405857
0.010572260416492441      899.3202308955816
0.010802449016030204      898.4381069212285
0.011032910939230619      897.6239094827962
0.011263827639190652      896.8776385802859
0.011494048967061755      896.1752661501934
0.011723820083820682      895.5713088910662
0.011953320682717213      895.0657668029045
0.012182731092678062      894.6586398857081
0.012412231855226382      894.3499281394771
0.012642003298903411      894.1396315642111
0.012872225116192546      894.0277501599109
0.013102446994778118      893.7847864956028
0.013332218499393473      893.6618634492885
0.01356171932266464       893.6589810209665
0.013791129793276359      893.7761392106376
0.01402063045289555       894.0133380183021
0.014250401630592404      894.370577443959
0.014480623019759359      894.8478574876093
0.014711539835704642      895.1803925278745
0.014942001874208778      895.6143937309145
0.015172190588640395      896.1498610967286
0.01540228807899374       896.7867946253178
0.015632476661762654      897.5251943166819
0.015862938437253588      898.3650601708201
0.01609385485945594       899.3063921877334
0.016324115336228646      900.1867876900495
0.016553925013622208      901.1187676834423
0.016783463813500554      902.1023321679112
0.017012912294953733      903.137481143457
0.01724245123020976       904.2242146100795
0.01747226117803945       905.362532567778
0.017702522059672054      906.5524350165534
0.017932276794613372      907.7606023037116
0.018161584037218948      909.0008791169386
0.018390622397267263      910.2732654562334
0.018619571113827754      911.577761321597
0.018848609636427344      912.9143667130292
0.019077917203754128      914.2830816305294
0.019307672424828403      915.6839060740984
0.019537568573699274      916.9948350234114
0.01976701624968263       918.3191307727562
0.019996194388245302      919.656793322133
0.020225282556443316      921.0078226715417
0.020454460532815345      922.372218820983
0.02068390788479834       923.7499817704557
0.020913803548616574      925.1411115199606
0.02114411498977932       926.3163233489521
0.021373975201947604      927.497237399902
0.02160356422393484       928.6838536728102
0.02183306273279162       929.8761721676768
0.02206265161925901       931.0741928845019
0.02229251156070728       932.2779158232853
0.02252282259658549       933.4873409840271
0.022753738766914562      934.3565559672385
0.022984200292012823      935.2138828804476
0.023214388625279938      936.0593217236545
0.023444485866429166      936.8928724968595
0.023674674331359946      937.7145352000626
0.023905136119473275      938.5243098332634
0.024136052683548088      939.3221963964621
0.024366274021741702      939.7040607367702
0.024596045148762867      940.0734793350381
0.024825545757885373      940.4304521912655
0.02505495617806012       940.7749793054526
0.02528445695083446       941.1070606776001
0.025514228404773787      941.4266963077065
0.025744450232385536      941.7338861957732
0.025974672267095825      941.6156706042412
0.026204443926923768      941.4662496528643
0.02643394490485871       941.2856233416418
0.02666335552995085       941.0737916705742
0.026892856344233315      940.8307546396617
0.02712262767714175       940.5565122489032
0.02735284922243193       940.2510644982998
0.027583766528201624      939.4660329411278
0.027814229053652367      938.6615233552287
0.028044418253299775      937.8375357406027
0.02827451622829193       936.9940700972496
0.028504705296278778      936.1311264251705
0.028735167558720572      935.2487047243636
0.028966084470753738      934.34680499483
0.029196345605491433      933.2324291608073
0.02942615593701711       932.073892351356
0.02965569538872289       930.871194566476
0.029885144521236064      929.6243358061669
0.030114684108324883      928.3333160704295
0.030344494710297387      926.9981353592628
0.030574756249911007      925.6187936726677
0.030804511377321087      924.1347222427049
0.031033819010118435      922.6368828827723
0.031262857758987544      921.1252755928698
0.03149180686390927       919.5999003729975
0.031720845775323685      918.0607572231562
0.031950153732830305      916.5078461433444
0.032179909346355486      914.941167133563
0.0324098051544111        913.3918049738135
0.032639252491552244      911.8533711564102
0.03286843029245836       910.3258656813531
0.0330975181233935        908.809288548642
0.03332669576210278       907.3036397582774
0.03355614277523119       905.8089193102586
0.033786038098215655      904.3251272045862
0.034016348759356954      902.9042183259099
0.03424620819605658       901.5330404793534
0.034475796445315066      900.2115936649169
0.03470529418235937       898.9398778826
0.03493488229610333       897.717893132403
0.035164741462093585      896.5456394143254
0.03539505171796626       895.423116728368
0.035625967353597694      894.3816997089835
0.03585642834714083       893.4202021616164
0.036086616150743635      892.5386240862664
0.03631671286286018       891.7369654829341
0.03654690079812825       891.0152263516192
0.036777362054689705      890.373406692321
0.03700827808407173       889.8115065050405
0.03723849938140827       889.3272988226062
0.03746827046781093       888.9503867675204
0.03769777103645843       888.6807703397834
0.03792718141620601       888.5184495393954
0.0381566821485052        888.4634243663562
0.03838645356182577       888.5156948206655
0.03861667534858004       888.6752609023237
0.038846895274787324      888.7860292732199
0.039076664838430766      889.0201809082583
0.03930616372759302       889.3777158074387
0.03953557226638858       889.8586339707614
0.039765070991905134      890.4629353982263
0.039994840228642616      891.190620089833
0.040225059665450036      892.041688045582
0.04045597761776665       892.8353752879488
0.04068644078597457       893.7288623029943
0.04091663062609736       894.7221490907185
0.041146729240799984      895.815235651121
0.04137691894925231       897.0081219842028
0.04160738185443156       898.3008080899627
0.04183829941298208       899.6932939684017
0.04206856149768976       901.0714996891394
0.04229837277362926       902.4971369594165
0.04252791316640542       903.9702057792327
0.04275736323887129       905.4907061485882
0.04298690376702529       907.058638067483
0.04321671531340127       908.6740015359165
0.04344697780296935       910.3367965538897
0.043676731016186174      912.0657102290883
0.04390603674591497       913.8044218639919
0.04413507359840861       915.5529314586005
0.04436402080919017       917.3112390129141
0.044593057824233256      919.0793445269331
0.04482236387867965       920.8572480006568
0.045052117578024006      922.6449494340858
0.045282012653644836      924.4369543847571
0.045511459262636354      926.2016859022036
0.04574063633797325       927.9391439864249
0.04596972344420469       929.649328637422
0.046198900357357554      931.3322398551944
0.046428346642361965      932.9878776397417
0.04665824123294997       934.6162419910644
0.04688855484177433       936.1459808743556
0.04711841720894409       937.634256008961
0.04734800837831597       939.0810673948805
0.04757750903201372       940.4864150321147
0.047807100065861544      941.8502989206635
0.04803696216230292       943.172719060526
0.04826727536583021       944.4536754517034
0.048498193048686675      945.5054323770411
0.048728656077441146      946.5065171910034
0.04895884590902903       947.4569298935897
0.04918894464672031       948.3566704848007
0.04941913460997818       949.205738964636
0.04964959790176041       950.0041353330954
0.04988051597838159       950.7518595901794
0.05011073543954296       951.1439624520909
0.0503405047004922        951.5025355582515
0.05057000345013497       951.8275789086605
0.05079941201302823       952.1190925033185
0.05102891092631677       952.3770763422255
0.05125868051417213       952.6015304253807
0.051488900464733596      952.7924547527851
