% Model:              brazing.mph
% Version:            COMSOL 5.3.0.223
% Date:               Oct 24 2018, 05:31
% Dimension:          1
% Nodes:              193
% Expressions:        1
% Description:        Line graph
% x                       Height
0                         602.7462941109363
1.6028433640637486E-4     602.839996692893
3.201839556876346E-4      602.9255239146653
4.7982673004648776E-4     603.0028757762531
6.393411493738095E-4      603.0720522776567
7.988560137323205E-4      603.1330534188759
9.58500122107595E-4       603.1858791999107
0.0011184019611720658     603.2305296207611
0.0012786893978073315     603.2670046814272
0.0014692881782178572     603.2975705625773
0.0016592398034323465     603.3100605342265
0.0018487589083489172     603.3044745963743
0.00203806159906999       603.2808127490213
0.0022273647228667317     603.239074992167
0.0024168851255237504     603.1792613258117
0.002606838908709185      603.1013717499552
0.0027974407000143733     603.0054062645977
0.003000214284638094      602.8767231308035
0.0032022105766743216     602.7314562476091
0.003403687017647933      602.5696056150144
0.0036049030444305387     602.3911712330195
0.0038061191011872996     602.1961531016243
0.004007595631967136      601.9845512208288
0.00420959207329518       601.7563655906332
0.00441236586612622       601.5115962110373
0.004615139632985625      601.233548570058
0.004817136048636202      600.9519301344319
0.005018612553936322      600.6667409041588
0.005219828585313435      600.3779808792387
0.005421044586718146      600.0856500596717
0.0056225210022172924     599.7897484454577
0.005824517268584787      599.4902760365968
0.006027290827249049      599.187232833089
0.006217890949519272      598.8714774727256
0.006407844130704021      598.5753230710424
0.0065973647866391935     598.298769628039
0.00678666880286996       598.0418171437159
0.006975972806121895      597.8044656180728
0.007165493423165078      597.5867150511095
0.007355446539677438      597.3885654428265
0.007546046571713631      597.2100167932234
0.00770633524869351       597.0768747996774
0.007866237248851195      596.9625868683936
0.008025880956992212      596.8671529993723
0.008185395381580456      596.790573192613
0.008344909844757132      596.7328474481161
0.008504553668569658      596.6939757658814
0.008664455861201733      596.6739581459092
0.008824744806995652      596.6727945881992
0.008985029143401957      596.6924273363975
0.009144928762683142      596.73534085894
0.009304571537041926      596.8015351558273
0.009464085956369179      596.8910102270589
0.00962360082072762       597.003766072635
0.009783244929102828      597.1398026925558
0.009943146768167231      597.299120086821
0.010103434204802428      597.4817182554306
0.010294032985212885      597.6920425170147
0.010483984610427306      597.9233346973361
0.01067350371534381       598.1755947963943
0.010862806406064813      598.4488228141896
0.011052109529861487      598.7430187507218
0.011241629932518437      599.0581826059912
0.011431583715703804      599.3943143799975
0.011622185507008923      599.7514140727408
0.011824959091632737      600.1039022914597
0.012026955383669057      600.448446117439
0.012228431824642762      600.7850455506787
0.01242964785142546       601.1137005911787
0.012630863908182311      601.4344112389391
0.012832340438962243      601.74717749396
0.01303433688029038       602.0519993562411
0.013237110673121513      602.3488768257827
0.013439884439981065      602.6166002312423
0.013641880855631786      602.8632313734698
0.013843357360932049      603.088770252465
0.014044573392309304      603.2932168682281
0.014245789393714157      603.476571220759
0.014447265809213447      603.6388333100576
0.014649262075581083      603.780003136124
0.01485203563424549       603.9000806989582
0.015042635756515686      603.9977637487801
0.015232588937700405      604.0772559676265
0.015422109593635547      604.1385573554968
0.015611413609866287      604.1816679123916
0.015800717613118194      604.2065876383107
0.01599023823016135       604.2133165332539
0.01618019134667368       604.2018545972213
0.016370791378709844      604.1722018302131
0.016531080055689654      604.1191115655122
0.01669098205584727       604.0616648770429
0.016850625763988217      603.9998617648051
0.017010140188576394      603.9337022287989
0.017169654651752998      603.8631862690243
0.017329298475565455      603.7883138854812
0.017489200668197463      603.7090850781697
0.01764948961399131       603.6254998470897
0.01780977395039525       603.5094884967743
0.017969673569674088      603.3803870219475
0.018129316344030533      603.2381954226096
0.01828883076335545       603.0829136987604
0.01844834562771156       602.9145418503999
0.01860798973608443       602.7330798775283
0.018767891575146484      602.5385277801454
0.018928179011779317      602.3308855582512
0.019118777792188433      602.0220987639597
0.019308729417401523      601.6892995928243
0.019498248522316707      601.332488044845
0.019687551213036395      600.9516641200219
0.019876854336831753      600.5468278183547
0.02006637473948738       600.1179791398438
0.020256328522671414      599.6651180844889
0.020446930313975188      599.1882446522901
0.02064970389860279       598.6150079060936
0.02085170019064286       598.0280537236589
0.02105317663162028       597.4273821049857
0.02125439265840668       596.8129930500742
0.021455608715167235      596.1848865589242
0.02165708524595088       595.5430626315359
0.021859081687282764      594.8875212679092
0.02206185548011769       594.218262468044
0.022264629246980954      593.5493668086532
0.022466625662635346      592.8939710183107
0.022668102167939252      592.252075097016
0.022869318199320136      591.6236790447697
0.023070534200728618      591.0087828615714
0.023272010616231548      590.4073865474212
0.023474006882602858      589.819490102319
0.02367678044127098       589.2450935262651
0.02386738056353977       588.6916768692283
0.024057333744723106      588.175835791805
0.02424685440065687       587.6975702939953
0.024436158416886237      587.2568803757991
0.02462546242013677       586.8537660372166
0.024814983037178547      586.4882272782475
0.025004936153689494      586.1602640988921
0.025195536185724256      585.8698764991501
0.0253558248627017        585.6210800216837
0.025515726862856965      585.4043879300625
0.025675370570995573      585.2198002242869
0.02583488499558142       585.0673169043565
0.02599439945875569       584.9469379702716
0.02615404328256581       584.858663422032
0.026313945475195465      584.8024932596379
0.026474234420986946      584.7784274830891
0.026634518757392422      584.780996588769
0.02679441837667279       584.8119736262059
0.026954061151030752      584.8713585953996
0.02711357557035719       584.9591514963502
0.027273090434714816      585.0753523290575
0.027432734543089202      585.219961093522
0.027592636382152785      585.3929777897431
0.02775292381878715       585.5944024177212
0.02794352259919713       585.8465105739552
0.02813347422441108       586.1350938002548
0.028322993329327112      586.4601520966199
0.028512296020047647      586.8216854630506
0.02870159914384385       587.2196938995469
0.028891119546500334      587.6541774061086
0.02908107332968523       588.125135982736
0.029271675120989875      588.6325696294288
0.02947444870561504       589.1884961859048
0.029676444997652693      589.7576656563663
0.02987792143862772       590.3400780408138
0.030079137465411736      590.9357333392468
0.030280353522169904      591.5446315516656
0.030481830052951155      592.1667726780702
0.030683826494280624      592.8021567184604
0.030886600287113104      593.4507836728365
0.03108937405397396       594.0857890118914
0.03129137046962597       594.7141584607383
0.03149284697492751       595.3358920193774
0.03169406300630604       595.9509896878087
0.03189527900771217       596.5594514660321
0.03209675542321274       597.1612773540477
0.03229875168958166       597.7564673518553
0.03250152524824737       598.3450214594552
0.03269212537051706       598.8212582754721
0.03288207855170127       599.2716889315535
0.033071599207635916      599.6963134276991
0.033260903223866156      600.0951317639094
0.033450207227117564      600.4681439401841
0.033639727844160215      600.8153499565232
0.03382968096067204       601.1367498129268
0.034020280992707694      601.4323435093949
0.034180569669686675      601.6439307116973
0.03434047166984347       601.8419912348255
0.0345001153779836        602.0265250787795
0.03465962980257096       602.1975322435593
0.03481914426574675       602.3550127291649
0.034978788089558385      602.4989665355963
0.03513869028218957       602.6293936628534
0.035298979227982585      602.7462941109363
