% Model:              brazing.mph
% Version:            COMSOL 5.3.0.223
% Date:               Oct 24 2018, 05:47
% Dimension:          1
% Nodes:              225
% Expressions:        1
% Description:        Line graph
% x                       Height
0                         675.2885012040119
2.3022181212578358E-4     675.1486367463651
4.5999325066962656E-4     674.9837495011243
6.894940081029028E-4      674.7938394682889
9.189044129547812E-4      674.5789066478592
0.001148405006736289      674.3389510398355
0.0013781761183620641     674.073972644217
0.001608397441069865      673.7839714610043
0.001839314118928521      673.0883355000353
0.0020697760201574002     672.3983442281993
0.002299964597801726      671.7139976454962
0.0025300619515304015     671.035295751926
0.0027602503975112853     670.3622385474889
0.0029907120357255193     669.6948260321844
0.003221628319839081      669.0330582060129
0.0034518885683530987     668.1524375474876
0.0036816980188178403     667.2636676897592
0.003911236592567028      666.3667486328275
0.004140684848157368      665.4616803766927
0.004370223557282477      664.5484629213548
0.004600033278179856      663.6270962668135
0.004830293931548535      662.6975804130692
0.005060048526376791      661.5820626490452
0.005289355629682316      660.479360424903
0.005518393850920054      659.389473740642
0.005747342428834         658.3124025962625
0.00597638081262499       657.2481469917649
0.006205688240655705      656.1967069271483
0.006435443321622868      655.1580824024134
0.006665339619110656      654.038464351071
0.006894787442849326      652.9392888020083
0.007123965728649401      651.8605557552247
0.007353054043912613      650.8022652107207
0.007582232167524012      649.7644171684966
0.007811679667266285      648.7470116285515
0.008041575479707366      647.7500485908861
0.008271887219609135      646.7458248216328
0.008501747728772392      645.777010130668
0.008731337046705121      644.8436045179917
0.008960835851156599      643.9456079836035
0.009190425033567954      643.0830205275041
0.009420285272008154      642.2558421496925
0.009650596606620833      641.4640728501697
0.009881512912836019      640.6995184917605
0.010111974573021956      639.9837968175974
0.010342163040896366      639.3169078276802
0.010572260416492441      638.6988515220089
0.010802449016030204      638.129627900584
0.011032910939230619      637.6092369634046
0.011263827639190652      637.1376787104714
0.011494048967061755      636.6879471499577
0.011723820083820682      636.3138216434032
0.011953320682717213      636.0153021908078
0.012182731092678062      635.7923887921718
0.012412231855226382      635.645081447495
0.012642003298903411      635.5733801567771
0.012872225116192546      635.5772849200188
0.013102446994778118      635.4254472749433
0.013332218499393473      635.3710145779712
0.01356171932266464       635.4139868291023
0.013791129793276359      635.5543640283369
0.01402063045289555       635.7921461756748
0.014250401630592404      636.1273332711158
0.014480623019759359      636.5599253146604
0.014711539835704642      636.8135457629681
0.014942001874208778      637.1506088517149
0.015172190588640395      637.5711145809006
0.01540228807899374       638.0750629505255
0.015632476661762654      638.6624539605897
0.015862938437253588      639.3332876110926
0.01609385485945594       640.0875639020348
0.016324115336228646      640.7514117626619
0.016553925013622208      641.4547847325721
0.016783463813500554      642.1976828117647
0.017012912294953733      642.9801060002404
0.01724245123020976       643.8020542979995
0.01747226117803945       644.6635277050409
0.017702522059672054      645.5645262213656
0.017932276794613372      646.46759662003
0.018161584037218948      647.3969289051653
0.018390622397267263      648.3525230767718
0.018619571113827754      649.3343791348493
0.018848609636427344      650.3424970793982
0.019077917203754128      651.3768769104179
0.019307672424828403      652.4375186279088
0.019537568573699274      653.4036465160522
0.01976701624968263       654.3857335552518
0.019996194388245302      655.3837797455079
0.020225282556443316      656.3977850868205
0.020454460532815345      657.4277495791897
0.02068390788479834       658.473673222615
0.020913803548616574      659.5355560170971
0.02114411498977932       660.3846207642513
0.021373975201947604      661.247440528181
0.02160356422393484       662.1240153088861
0.02183306273279162       663.0143451063668
0.02206265161925901       663.9184299206231
0.02229251156070728       664.8362697516544
0.02252282259658549       665.7678645994615
0.022753738766914562      666.3684518266198
0.022984200292012823      666.9717714556715
0.023214388625279938      667.5778234866164
0.023444485866429166      668.1866079194543
0.023674674331359946      668.7981247541859
0.023905136119473275      669.4123739908104
0.024136052683548088      670.0293556293282
0.024366274021741702      670.2383802661947
0.024596045148762867      670.4511687516907
0.024825545757885373      670.6677210858161
0.02505495617806012       670.888037268571
0.02528445695083446       671.1121172999558
0.025514228404773787      671.3399611799698
0.025744450232385536      671.5715689086136
0.025974672267095825      671.4269466897063
0.026204443926923768      671.2641539312972
0.02643394490485871       671.0831906333865
0.02666335552995085       670.8840567959746
0.026892856344233315      670.6667524190615
0.02712262767714175       670.4312775026465
0.02735284922243193       670.1776320467303
0.027583766528201624      669.5133499812116
0.027814229053652367      668.8437150623016
0.028044418253299775      668.1687272900008
0.02827451622829193       667.4883866643088
0.028504705296278778      666.8026931852262
0.028735167558720572      666.1116468527522
0.028966084470753738      665.4152476668874
0.029196345605491433      664.5512367482822
0.02942615593701711       663.6574878839544
0.02965569538872289       662.734001073904
0.029885144521236064      661.780776318131
0.030114684108324883      660.7978136166357
0.030344494710297387      659.7851129694174
0.030574756249911007      658.7426743764767
0.030804511377321087      657.6101017263696
0.031033819010118435      656.4695983671894
0.031262857758987544      655.3211642989356
0.03149180686390927       654.1647995216084
0.031720845775323685      653.0005040352082
0.031950153732830305      651.8282778397341
0.032179909346355486      650.648120935187
0.0324098051544111        649.4833074970503
0.032639252491552244      648.3265218443898
0.03286843029245836       647.1777639772056
0.0330975181233935        646.0370338954978
0.03332669576210278       644.9043315992664
0.03355614277523119       643.7796570885108
0.033786038098215655      642.6630103632318
0.034016348759356954      641.5996923537066
0.03424620819605658       640.5707466098239
0.034475796445315066      639.5761731315838
0.03470529418235937       638.615971918986
0.03493488229610333       637.690142972031
0.035164741462093585      636.7986862907181
0.03539505171796626       635.941601875048
0.035625967353597694      635.1493789316161
0.03585642834714083       634.4126960278813
0.036086616150743635      633.7315531638437
0.03631671286286018       633.1059503395036
0.03654690079812825       632.5358875548611
0.036777362054689705      632.0213648099153
0.03700827808407173       631.5623821046672
0.03723849938140827       631.1559748333138
0.03746827046781093       630.8314470264622
0.03769777103645843       630.5887986841122
0.03792718141620601       630.4280298062639
0.0381566821485052        630.3491403929175
0.03838645356182577       630.3521304440725
0.03861667534858004       630.4369999597293
0.038846895274787324      630.4169343388758
0.039076664838430766      630.4991090685294
0.03930616372759302       630.6835241486899
0.03953557226638858       630.9701795793575
0.039765070991905134      631.3590753605323
0.039994840228642616      631.8502114922138
0.040225059665450036      632.4435879744026
0.04045597761776665       632.9135247641831
0.04068644078597457       633.4678167842549
0.04091663062609736       634.106464034618
0.041146729240799984      634.8294665152725
0.04137691894925231       635.6368242262188
0.04160738185443156       636.528537167456
0.04183829941298208       637.5046053389848
0.04206856149768976       638.423199731394
0.04229837277362926       639.3784853343753
0.04252791316640542       640.3704621479287
0.04275736323887129       641.3991301720542
0.04298690376702529       642.4644894067521
0.04321671531340127       643.5665398520218
0.04344697780296935       644.7052815078638
0.043676731016186174      645.9018394950307
0.04390603674591497       647.1073979783702
0.04413507359840861       648.3219569578823
0.04436402080919017       649.545516433567
0.044593057824233256      650.7780764054245
0.04482236387867965       652.0196368734543
0.045052117578024006      653.2701978376568
0.045282012653644836      654.5281460567146
0.045511459262636354      655.7709048920389
0.04574063633797325       656.9984743436295
0.04596972344420469       658.2108544114865
0.046198900357357554      659.4080450956104
0.046428346642361965      660.5900463960004
0.04665824123294997       661.7568583126571
0.04688855484177433       662.8382835697643
0.04711841720894409       663.8984753456848
0.04734800837831597       664.9374336404188
0.04757750903201372       665.9551584539661
0.047807100065861544      666.9516497863272
0.04803696216230292       667.9269076375011
0.04826727536583021       668.8809320074887
0.048498193048686675      669.6248206646696
0.048728656077441146      670.3451810805659
0.04895884590902903       671.0420132551773
0.04918894464672031       671.7153171885038
0.04941913460997818       672.3650928805457
0.04964959790176041       672.9913403313025
0.04988051597838159       673.5940595407747
0.05011073543954296       673.8627375778885
0.0503405047004922        674.1225439675474
0.05057000345013497       674.3734787097507
0.05079941201302823       674.6155418044988
0.05102891092631677       674.8487332517919
0.05125868051417213       675.0730530516295
0.051488900464733596      675.2885012040119
