% Model:              brazing.mph
% Version:            COMSOL 5.3.0.223
% Date:               Oct 24 2018, 05:54
% Dimension:          1
% Nodes:              193
% Expressions:        1
% Description:        Line graph
% x                       Height
0                         849.1574957499905
1.6028433640637486E-4     849.2320711011051
3.201839556876346E-4      849.2995403860892
4.7982673004648776E-4     849.3599036049424
6.393411493738095E-4      849.4131607576652
7.988560137323205E-4      849.4593118442575
9.58500122107595E-4       849.4983568647191
0.0011184019611720658     849.5302958190504
0.0012786893978073315     849.5551287072509
0.0014692881782178572     849.575932929774
0.0016592398034323465     849.5830637232249
0.0018487589083489172     849.576521087604
0.00203806159906999       849.556305022911
0.0022273647228667317     849.5224155291461
0.0024168851255237504     849.4748526063091
0.002606838908709185      849.4136162544004
0.0027974407000143733     849.3387064734196
0.003000214284638094      849.227277517161
0.0032022105766743216     849.1037670329571
0.003403687017647933      848.9681750208077
0.0036049030444305387     848.8205014807132
0.0038061191011872996     848.6607464126733
0.004007595631967136      848.4889098166883
0.00420959207329518       848.3049916927579
0.00441236586612622       848.1089920408821
0.004615139632985625      847.8958293999764
0.004817136048636202      847.6788394054935
0.005018612553936322      847.4580220574329
0.005219828585313435      847.2333773557954
0.005421044586718146      847.0049053005804
0.0056225210022172924     846.7726058917882
0.005824517268584787      846.5364791294184
0.006027290827249049      846.2965250134715
0.006217890949519272      846.0450506549458
0.006407844130704021      845.8084336573944
0.0065973647866391935     845.5866740208172
0.00678666880286996       845.3797717452145
0.006975972806121895      845.187726830586
0.007165493423165078      845.0105392769316
0.007355446539677438      844.8482090842518
0.007546046571713631      844.7007362525461
0.00770633524869351       844.5881014357777
0.007866237248851195      844.4895220961133
0.008025880956992212      844.4049982335526
0.008185395381580456      844.3345298480957
0.008344909844757132      844.2781169397427
0.008504553668569658      844.2357595084935
0.008664455861201733      844.207457554348
0.008824744806995652      844.1932110773065
0.008985029143401957      844.1921124492961
0.009144928762683142      844.2094557872002
0.009304571537041926      844.245241091019
0.009464085956369179      844.299468360752
0.00962360082072762       844.3721375963997
0.009783244929102828      844.4632487979619
0.009943146768167231      844.5728019654385
0.010103434204802428      844.7007970988296
0.010294032985212885      844.8423334898863
0.010483984610427306      845.0004002749832
0.01067350371534381       845.1749974541209
0.010862806406064813      845.3661250272991
0.011052109529861487      845.5737829945177
0.011241629932518437      845.7979713557769
0.011431583715703804      846.0386901110766
0.011622185507008923      846.2959392604167
0.011824959091632737      846.5496710739227
0.012026955383669057      846.7967670758875
0.012228431824642762      847.0372272663118
0.01242964785142546       847.2710516451951
0.012630863908182311      847.4982402125378
0.012832340438962243      847.7187929683397
0.01303433688029038       847.9327099126007
0.013237110673121513      848.1399910453209
0.013439884439981065      848.3375618880615
0.013641880855631786      848.5189802989752
0.013843357360932049      848.6842462780618
0.014044573392309304      848.8333598253213
0.014245789393714157      848.9663209407539
0.014447265809213447      849.0831296243597
0.014649262075581083      849.1837858761386
0.01485203563424549       849.2682896960904
0.015042635756515686      849.3337535746538
0.015232588937700405      849.3860197819434
0.015422109593635547      849.4250883179599
0.015611413609866287      849.4509591827026
0.015800717613118194      849.4636323761719
0.01599023823016135       849.4631078983679
0.01618019134667368       849.4493857492902
0.016370791378709844      849.4224659289392
0.016531080055689654      849.3784428614318
0.01669098205584727       849.3310224495607
0.016850625763988217      849.2802046933256
0.017010140188576394      849.2259895927265
0.017169654651752998      849.1683771477634
0.017329298475565455      849.1073673584368
0.017489200668197463      849.042960224746
0.01764948961399131       848.9751557466915
0.01780977395039525       848.8859222314073
0.017969673569674088      848.7872047971035
0.018129316344030533      848.6790034437805
0.01828883076335545       848.5613181714381
0.01844834562771156       848.4341489800762
0.01860798973608443       848.2974958696951
0.018767891575146484      848.1513588402946
0.018928179011779317      847.9957378918747
0.019118777792188433      847.7592773690457
0.019308729417401523      847.5050446823983
0.019498248522316707      847.2330398319326
0.019687551213036395      846.9432628176488
0.019876854336831753      846.6357136395467
0.02006637473948738       846.3103922976262
0.020256328522671414      845.9672987918876
0.020446930313975188      845.6064331223307
0.02064970389860279       845.1826661717372
0.02085170019064286       844.7483059873215
0.02105317663162028       844.3033525690836
0.02125439265840668       843.8478059170233
0.021455608715167235      843.3816660311408
0.02165708524595088       842.904932911436
0.021859081687282764      842.4176065579089
0.02206185548011769       841.9196869705596
0.022264629246980954      841.4354617253954
0.022466625662635346      840.9610958721843
0.022668102167939252      840.496589410926
0.022869318199320136      840.0419423416209
0.023070534200728618      839.5971546642687
0.023272010616231548      839.1622263788696
0.023474006882602858      838.7371574854234
0.02367678044127098       838.32194798393
0.02386738056353977       837.9207820824034
0.024057333744723106      837.5483375367832
0.02424685440065687       837.2046143470694
0.024436158416886237      836.8896125132625
0.02462546242013677       836.6033320353621
0.024814983037178547      836.345772913368
0.025004936153689494      836.1169351472807
0.025195536185724256      835.9168187370998
0.0253558248627017        835.740759623173
0.025515726862856965      835.5894766388445
0.025675370570995573      835.4629697841143
0.02583488499558142       835.3612390589825
0.02599439945875569       835.2842844634489
0.02615404328256581       835.2321059975135
0.026313945475195465      835.2047036611765
0.026474234420986946      835.2020774544377
0.026634518757392422      835.2168309384134
0.02679441837667279       835.2531926754356
0.026954061151030752      835.311162665504
0.02711357557035719       835.3907409086186
0.027273090434714816      835.4919274047794
0.027432734543089202      835.6147221539867
0.027592636382152785      835.7591251562402
0.02775292381878715       835.9251364115399
0.02794352259919713       836.1254412401696
0.02813347422441108       836.3528239310575
0.028322993329327112      836.607284484203
0.028512296020047647      836.8888228996069
0.02870159914384385       837.1974391772688
0.028891119546500334      837.5331333171888
0.02908107332968523       837.8959053193668
0.029271675120989875      838.2857551838027
0.02947444870561504       838.7167414670386
0.029676444997652693      839.1559302334814
0.02987792143862772       839.6033214831317
0.030079137465411736      840.0589152159893
0.030280353522169904      840.522711432054
0.030481830052951155      840.9947101313261
0.030683826494280624      841.4749113138054
0.030886600287113104      841.9633149794919
0.03108937405397396       842.4503926287003
0.03129137046962597       842.9335342802457
0.03149284697492751       843.4127399341281
0.03169406300630604       843.8880095903475
0.03189527900771217       844.3593432489039
0.03209675542321274       844.8267409097972
0.03229875168958166       845.2902025730276
0.03250152524824737       845.7497282385949
0.03269212537051706       846.1119396221528
0.03288207855170127       846.4552639362793
0.033071599207635916      846.7797011809745
0.033260903223866156      847.0852513562382
0.033450207227117564      847.3719144620705
0.033639727844160215      847.6396904984714
0.03382968096067204       847.888579465441
0.034020280992707694      848.1185813629792
0.034180569669686675      848.2872273994682
0.03434047166984347       848.4447929393538
0.0345001153779836        848.5912779826357
0.03465962980257096       848.7266825293137
0.03481914426574675       848.8510065793884
0.034978788089558385      848.9642501328593
0.03513869028218957       849.0664131897266
0.035298979227982585      849.1574957499905
