% Model:              brazing.mph
% Version:            COMSOL 5.3.0.223
% Date:               Oct 24 2018, 04:55
% Dimension:          1
% Nodes:              145
% Expressions:        1
% Description:        Line graph
% x                       Height
0                         732.4022998504857
1.8037553861809572E-4     732.6881286745796
3.5951128344368776E-4     732.915109229665
5.377561773732229E-4      733.083241515742
7.154644111300318E-4      733.1925255328106
8.929933875627798E-4      733.2429612808709
0.0010707015910786408     733.2345487599227
0.0012489464247083767     733.167287969966
0.0014280820795340731     733.0411789110008
0.0016084574989771061     732.8562215830274
0.0017793134314883058     732.7900981078614
0.0019491114898538484     732.6968053660178
0.002118149876008701      732.5763433574969
0.0022867308232763497     732.4287120822987
0.002455159027530182      732.2539115404232
0.0026237400128558564     732.0519417318701
0.0027927784749207734     731.8228026566397
0.0029625766466419693     731.5664943147319
0.0031334327293582195     731.2830167061469
0.0033042867504275058     731.1038452379815
0.0034740828875811486     730.9174958025741
0.0036431193341009516     730.7239683999251
0.0038116983146850476     730.523263030034
0.003980124516686077      730.3153796929009
0.004148703455848711      730.1003183885261
0.004317739819749776      729.8780791169092
0.004487535833529769      729.6486618780506
0.004658389691119368      729.41206667195
0.0048387629974717405     729.2844136691469
0.005017896580971026      729.15896308334
0.005196139373513023      729.0357149145299
0.0053738455543625        728.9146691627162
0.005551372514551955      728.7958258278989
0.005729078726427549      728.6791849100779
0.005907321580834967      728.5647464092533
0.006086455256670912      728.4525103254251
0.006266828685292636      728.3424766585935
0.0064472042239161545     728.494277997474
0.0066263399687470585     728.6522441271247
0.00680458486268183       728.8163750475459
0.0069822930964438265     728.9866707587373
0.007159822072881748      729.163131260699
0.007337530276402798      729.3457565534309
0.007515775110037768      729.5345466369331
0.007694910764868775      729.7295015112055
0.007875286184317232      729.9306211762485
0.008046142116827224      730.2018937421728
0.008215940175191578      730.4629578162838
0.008384978561345261      730.7138133985819
0.008553559508611747      730.954460489067
0.008721987712864422      731.1848990877388
0.008890568698188937      731.4051291945974
0.00905960716025268       731.6151508096431
0.009229405331972688      731.8149639328756
0.009400261414687729      732.0045685642949
0.009571115435747398      732.329456337996
0.009740911572891598      732.6225547616099
0.009909948019402086      732.8838638351372
0.010078526999976944      733.1133835585773
0.010246953201968763      733.3111139319305
0.010415532141122159      733.4770549551969
0.010584568505013912      733.6112066283762
0.010754364518784467      733.7135689514683
0.010925218376364454      733.7841419244736
0.011105591682722255      733.9476327041397
0.01128472526622686       734.0625323993489
0.011462968058774099      734.1288410101022
0.011640674239628768      734.1465585363987
0.011818201199823401      734.1156849782388
0.01199590741170419       734.0362203356226
0.012174150266116847      733.9081646085497
0.012353283941958112      733.7315177970203
0.012533657370585264      733.5062799010346
0.01271403176453574       733.4853431369013
0.012893166387683227      733.406624521081
0.013071410176518557      733.2701240535741
0.013249117315197753      733.0758417343806
0.013426645199902413      732.8237775635002
0.013604352308338922      732.5139315409332
0.01378259603687098       732.1463036666792
0.013961730570013379      731.7208939407385
0.014142104844781908      731.2377023631113
0.014312959944399205      730.8354386736103
0.014482757184992078      730.4073805780987
0.014651794764271453      729.9535280765771
0.014820374911240972      729.4738811690451
0.014988802317395246      728.9684398555028
0.01515738250242126       728.4372041359503
0.015326420157607648      727.8801740103873
0.015496217511551624      727.2973494788143
0.015667072761367945      726.6887305412309
0.01583792791479403       726.1738659132012
0.016007725163749622      725.6657878143442
0.01617676270725794       725.1644962446603
0.01634534277588875       724.6699912041494
0.016513770062946447      724.1822726928114
0.01668235009015449       723.7013407106462
0.016851387551041475      723.227195257654
0.017021184676619543      722.7598363338348
0.017192039666560827      722.2992639391884
0.017372413817338207      721.9319876469654
0.017551548228302124      721.5891566461104
0.017729791836073705      721.270770936624
0.017907498824762332      720.976830518506
0.018085026590318725      720.7073353917561
0.018262733610032132      720.4622855563748
0.018440977279666457      720.2416810123617
0.018620111782963036      720.0455217597172
0.018800486056004474      719.8738077984408
0.018980860449944497      719.985025957223
0.019159995073081745      720.1266710584887
0.019338238861906984      720.2987431022383
0.01951594600057618       720.5012420884716
0.019693473885270874      720.7341680171887
0.019871180993697383      720.9975208883895
0.020049424722219357      721.2913007020742
0.02022855925535152       721.6155074582424
0.0204089335301096        721.9701411568944
0.02057978862980686       722.3956855750944
0.020749585870478253      722.8221952480392
0.020918623449835097      723.249670175729
0.021087203596881453      723.6781103581636
0.021255631003112355      724.1075157953434
0.021424211188215206      724.5378864872681
0.021593248843479067      724.9692224339375
0.021763046197501558      725.4015236353517
0.02193390144739785       725.8347900915112
0.022104756600747556      726.4312099245295
0.02227455384962815       726.9993285511133
0.02244359139306247       727.5391459712631
0.022612171461619885      728.0506621849787
0.022780598748604386      728.5338771922599
0.022949178775739036      728.988790993107
0.02311821623655202       729.4154035875196
0.023288013362055097      729.8137149754981
0.023458868351919994      730.1837251570424
0.02363924250270423       730.6319762484837
0.023818376913674867      731.0297916418823
0.023996620521453065      731.3771713372388
0.02417432751014825       731.6741153345527
0.02435185527571118       731.920623633824
0.024529562295431146      732.1166962350533
0.02470780596507209       732.2623331382399
0.024886940468375387      732.3575343433839
0.025067314741423676      732.4022998504857
