% Model:              brazing.mph
% Version:            COMSOL 5.3.0.223
% Date:               Oct 24 2018, 01:57
% Dimension:          1
% Nodes:              193
% Expressions:        1
% Description:        Line graph
% x                       Height
0                         615.1473534752084
1.6028433640637486E-4     615.2251083578944
3.201839556876346E-4      615.2957738089543
4.7982673004648776E-4     615.3593498283877
6.393411493738095E-4      615.4158364161951
7.988560137323205E-4      615.4652335723763
9.58500122107595E-4       615.507541296931
0.0011184019611720658     615.5427595898597
0.0012786893978073315     615.5708884511621
0.0014692881782178572     615.5917644038641
0.0016592398034323465     615.5953312084581
0.0018487589083489172     615.5815888649437
0.00203806159906999       615.5505373733214
0.0022273647228667317     615.5021767335909
0.0024168851255237504     615.4365069457523
0.002606838908709185      615.3535280098055
0.0027974407000143733     615.2532399257507
0.003000214284638094      615.124720181486
0.0032022105766743216     614.9803118819179
0.003403687017647933      614.8200150270459
0.0036049030444305387     614.6438296168702
0.0038061191011872996     614.4517556513908
0.004007595631967136      614.2437931306077
0.00420959207329518       614.019942054521
0.00441236586612622       613.7802024231305
0.004615139632985625      613.5075949144713
0.004817136048636202      613.2314786919859
0.005018612553936322      612.9518537556743
0.005219828585313435      612.6687201055364
0.005421044586718146      612.3820777415723
0.0056225210022172924     612.091926663782
0.005824517268584787      611.7982668721656
0.006027290827249049      611.5010983667229
0.006217890949519272      611.1915080915389
0.006407844130704021      610.9011335191822
0.0065973647866391935     610.6299746496522
0.00678666880286996       610.3780314829494
0.006975972806121895      610.1453040190735
0.007165493423165078      609.9317922580246
0.007355446539677438      609.7374961998028
0.007546046571713631      609.562415844408
0.00770633524869351       609.4321067281355
0.007866237248851195      609.3201261927927
0.008025880956992212      609.2264742383793
0.008185395381580456      609.1511508648955
0.008344909844757132      609.0941560723412
0.008504553668569658      609.0554898607163
0.008664455861201733      609.0351522300209
0.008824744806995652      609.0331431802551
0.008985029143401957      609.0518722079187
0.009144928762683142      609.0933167812747
0.009304571537041926      609.157476900323
0.009464085956369179      609.2443525650635
0.00962360082072762       609.3539437754965
0.009783244929102828      609.4862505316219
0.009943146768167231      609.6412728334396
0.010103434204802428      609.8190106809496
0.010294032985212885      610.0231793877404
0.010483984610427306      610.2480995694946
0.01067350371534381       610.4937712262121
0.010862806406064813      610.760194357893
0.011052109529861487      611.0473689645374
0.011241629932518437      611.3552950461453
0.011431583715703804      611.6839726027166
0.011622185507008923      612.0334016342513
0.011824959091632737      612.378595762341
0.012026955383669057      612.7160280160219
0.012228431824642762      613.0456983952943
0.01242964785142546       613.367606900158
0.012630863908182311      613.681753530613
0.012832340438962243      613.9881382866595
0.01303433688029038       614.2867611682973
0.013237110673121513      614.5776221755265
0.013439884439981065      614.8404824386334
0.013641880855631786      615.0829967418084
0.013843357360932049      615.305165085052
0.014044573392309304      615.5069874683637
0.014245789393714157      615.6884638917438
0.014447265809213447      615.8495943551923
0.014649262075581083      615.9903788587089
0.01485203563424549       616.1108174022941
0.015042635756515686      616.2120668669697
0.015232588937700405      616.2960043371503
0.015422109593635547      616.3626298128354
0.015611413609866287      616.4119432940254
0.015800717613118194      616.4439447807201
0.01599023823016135       616.4586342729194
0.01618019134667368       616.4560117706236
0.016370791378709844      616.4360772738326
0.016531080055689654      616.3917332454309
0.01669098205584727       616.344254637169
0.016850625763988217      616.2936414490468
0.017010140188576394      616.2398936810642
0.017169654651752998      616.1830113332214
0.017329298475565455      616.1229944055184
0.017489200668197463      616.0598428979549
0.01764948961399131       615.9935568105312
0.01780977395039525       615.8932702058455
0.017969673569674088      615.7809409955927
0.018129316344030533      615.6565691797726
0.01828883076335545       615.5201547583854
0.01844834562771156       615.371697731431
0.01860798973608443       615.2111980989093
0.018767891575146484      615.0386558608205
0.018928179011779317      614.8540710171645
0.019118777792188433      614.5704331427534
0.019308729417401523      614.2635740689736
0.019498248522316707      613.9334937958251
0.019687551213036395      613.5801923233082
0.019876854336831753      613.2036696514226
0.02006637473948738       612.8039257801684
0.020256328522671414      612.3809607095454
0.020446930313975188      611.934774439554
0.02064970389860279       611.3988751053342
0.02085170019064286       610.8495762817261
0.02105317663162028       610.2868779687298
0.02125439265840668       609.7107801663451
0.021455608715167235      609.1212828745722
0.02165708524595088       608.5183860934109
0.021859081687282764      607.9020898228614
0.02206185548011769       607.2723940629236
0.022264629246980954      606.6450317493479
0.022466625662635346      606.0300581420208
0.022668102167939252      605.4274732409426
0.022869318199320136      604.8372770461131
0.023070534200728618      604.2594695575323
0.023272010616231548      603.6940507752003
0.023474006882602858      603.1410206991169
0.02367678044127098       602.6003793292823
0.02386738056353977       602.07876091075
0.024057333744723106      601.5927086752245
0.02424685440065687       601.1422226227054
0.024436158416886237      600.727302753193
0.02462546242013677       600.3479490666873
0.024814983037178547      600.0041615631882
0.025004936153689494      599.6959402426957
0.025195536185724256      599.4232851052099
0.0253558248627017        599.1889041328999
0.025515726862856965      598.9848053436832
0.025675370570995573      598.81098873756
0.02583488499558142       598.66745431453
0.02599439945875569       598.5542020745934
0.02615404328256581       598.4712320177499
0.026313945475195465      598.418544144
0.026474234420986946      598.3961384533433
0.026634518757392422      598.3991218358346
0.02679441837667279       598.4287559441717
0.026954061151030752      598.4850407783546
0.02711357557035719       598.5679763383831
0.027273090434714816      598.6775626242573
0.027432734543089202      598.8137996359773
0.027592636382152785      598.976687373543
0.02775292381878715       599.1662258369544
0.02794352259919713       599.4033165388742
0.02813347422441108       599.6747876383588
0.028322993329327112      599.9806391354086
0.028512296020047647      600.3208710300233
0.02870159914384385       600.695483322203
0.028891119546500334      601.1044760119477
0.02908107332968523       601.5478490992574
0.029271675120989875      602.025602584132
0.02947444870561504       602.5507554494807
0.029676444997652693      603.0876942313788
0.02987792143862772       603.636418929826
0.030079137465411736      604.1969295448226
0.030280353522169904      604.7692260763685
0.030481830052951155      605.3533085244635
0.030683826494280624      605.9491768891079
0.030886600287113104      606.5568311703014
0.03108937405397396       607.1519276298652
0.03129137046962597       607.7402179951638
0.03149284697492751       608.3217022661971
0.03169406300630604       608.8963804429653
0.03189527900771217       609.4642525254684
0.03209675542321274       610.0253185137061
0.03229875168958166       610.5795784076787
0.03250152524824737       611.1270322073862
0.03269212537051706       611.5722760835806
0.03288207855170127       611.9922111884681
0.033071599207635916      612.3868375220491
0.033260903223866156      612.7561550843232
0.033450207227117564      613.1001638752905
0.033639727844160215      613.418863894951
0.03382968096067204       613.7122551433048
0.034020280992707694      613.9803376203519
0.034180569669686675      614.1700830989414
0.03434047166984347       614.3472947213215
0.0345001153779836        614.5119724874925
0.03465962980257096       614.6641163974541
0.03481914426574675       614.8037264512066
0.034978788089558385      614.9308026487498
0.03513869028218957       615.0453449900838
0.035298979227982585      615.1473534752084
