% Model:              brazing.mph
% Version:            COMSOL 5.3.0.223
% Date:               Oct 24 2018, 05:04
% Dimension:          1
% Nodes:              193
% Expressions:        1
% Description:        Line graph
% x                       Height
0                         670.8025174784096
1.6028433640637486E-4     670.8805818386551
3.201839556876346E-4      670.9509615941732
4.7982673004648776E-4     671.0136567449644
6.393411493738095E-4      671.0686672910285
7.988560137323205E-4      671.1159932323654
9.58500122107595E-4       671.1556345689754
0.0011184019611720658     671.1875913008581
0.0012786893978073315     671.2118634280138
0.0014692881782178572     671.2281703519815
0.0016592398034323465     671.2264394688004
0.0018487589083489172     671.206670778471
0.00203806159906999       671.1688642809926
0.0022273647228667317     671.1130199763656
0.0024168851255237504     671.03913786459
0.002606838908709185      670.9472179456658
0.0027974407000143733     670.837260219593
0.003000214284638094      670.69769863075
0.0032022105766743216     670.5425405062624
0.003403687017647933      670.3717858461303
0.0036049030444305387     670.1854346503535
0.0038061191011872996     669.9834869189323
0.004007595631967136      669.7659426518666
0.00420959207329518       669.5328018491563
0.00441236586612622       669.2840645108015
0.004615139632985625      669.0049483564998
0.004817136048636202      668.7218588151173
0.005018612553936322      668.4347958866548
0.005219828585313435      668.1437595711114
0.005421044586718146      667.8487498684877
0.0056225210022172924     667.5497667787836
0.005824517268584787      667.246810301999
0.006027290827249049      666.9398804381339
0.006217890949519272      666.6214790211363
0.006407844130704021      666.3228727494105
0.0065973647866391935     666.0440616229562
0.00678666880286996       665.7850456417734
0.006975972806121895      665.5458248058621
0.007165493423165078      665.3263991152224
0.007355446539677438      665.1267685698541
0.007546046571713631      664.9469331697575
0.00770633524869351       664.8132807130258
0.007866237248851195      664.697907987444
0.008025880956992212      664.6008149930118
0.008185395381580456      664.5220017297294
0.008344909844757132      664.4614681975966
0.008504553668569658      664.4192143966136
0.008664455861201733      664.3952403267804
0.008824744806995652      664.3895459880968
0.008985029143401957      664.4049666929444
0.009144928762683142      664.4438153455665
0.009304571537041926      664.5060919459632
0.009464085956369179      664.5917964941348
0.00962360082072762       664.7009289900808
0.009783244929102828      664.8334894338017
0.009943146768167231      664.989477825297
0.010103434204802428      665.168894164567
0.010294032985212885      665.3714374487062
0.010483984610427306      665.5954504011543
0.01067350371534381       665.8409330219114
0.010862806406064813      666.1078853109777
0.011052109529861487      666.3963072683531
0.011241629932518437      666.7061988940376
0.011431583715703804      667.0375601880312
0.011622185507008923      667.3903911503338
0.011824959091632737      667.7437071583099
0.012026955383669057      668.0886374853261
0.012228431824642762      668.4251821313817
0.01242964785142546       668.7533410964775
0.012630863908182311      669.073114380613
0.012832340438962243      669.3845019837884
0.01303433688029038       669.6875039060036
0.013237110673121513      669.9821201472587
0.013439884439981065      670.2557970730426
0.013641880855631786      670.5085121384946
0.013843357360932049      670.7402653436146
0.014044573392309304      670.9510566884027
0.014245789393714157      671.1408861728588
0.014447265809213447      671.3097537969828
0.014649262075581083      671.4576595607749
0.01485203563424549       671.5846034642351
0.015042635756515686      671.6923469909873
0.015232588937700405      671.7822884273534
0.015422109593635547      671.8544277733329
0.015611413609866287      671.9087650289263
0.015800717613118194      671.9453001941332
0.01599023823016135       671.964033268954
0.01618019134667368       671.9649642533883
0.016370791378709844      671.9480931474365
0.016531080055689654      671.9066745083874
0.01669098205584727       671.8618614029035
0.016850625763988217      671.8136538309848
0.017010140188576394      671.7620517926312
0.017169654651752998      671.7070552878428
0.017329298475565455      671.6486643166196
0.017489200668197463      671.5868788789616
0.01764948961399131       671.5216989748686
0.01780977395039525       671.4220002480283
0.017969673569674088      671.310033976607
0.018129316344030533      671.1858001606047
0.01828883076335545       671.0492988000212
0.01844834562771156       670.9005298948567
0.01860798973608443       670.7394934451113
0.018767891575146484      670.5661894507847
0.018928179011779317      670.3806179118772
0.019118777792188433      670.0895722802006
0.019308729417401523      669.7745099999588
0.019498248522316707      669.4354310711517
0.019687551213036395      669.0723354937791
0.019876854336831753      668.6852232678413
0.02006637473948738       668.274094393338
0.020256328522671414      667.8389488702695
0.020446930313975188      667.3797866986357
0.02064970389860279       666.8410154460025
0.02085170019064286       666.288455071767
0.02105317663162028       665.7221055759294
0.02125439265840668       665.1419669584898
0.021455608715167235      664.548039219448
0.02165708524595088       663.940322358804
0.021859081687282764      663.318816376558
0.02206185548011769       662.6835212727096
0.022264629246980954      662.0588794077588
0.022466625662635346      661.4461135583182
0.022668102167939252      660.845223724388
0.022869318199320136      660.256209905968
0.023070534200728618      659.6790721030584
0.023272010616231548      659.113810315659
0.023474006882602858      658.5604245437698
0.02367678044127098       658.0189147873909
0.02386738056353977       657.4985116292352
0.024057333744723106      657.0140672202533
0.02424685440065687       656.5655815604449
0.024436158416886237      656.1530546498104
0.02462546242013677       655.7764864883495
0.024814983037178547      655.4358770760624
0.025004936153689494      655.131226412949
0.025195536185724256      654.8625344990094
0.0253558248627017        654.6291159207298
0.025515726862856965      654.426313964498
0.025675370570995573      654.2541286303139
0.02583488499558142       654.1125599181776
0.02599439945875569       654.0016078280889
0.02615404328256581       653.9212723600481
0.026313945475195465      653.8715535140549
0.026474234420986946      653.8524512901095
0.026634518757392422      653.8594814594862
0.02679441837667279       653.8930462180501
0.026954061151030752      653.9531455658009
0.02711357557035719       654.0397795027387
0.027273090434714816      654.1529480288635
0.027432734543089202      654.2926511441754
0.027592636382152785      654.4588888486743
0.02775292381878715       654.6516611423601
0.02794352259919713       654.8914598865263
0.02813347422441108       655.1657661716365
0.028322993329327112      655.4745799976909
0.028512296020047647      655.8179013646893
0.02870159914384385       656.1957302726319
0.028891119546500334      656.6080667215186
0.02908107332968523       657.0549107113494
0.029271675120989875      657.5362622421243
0.02947444870561504       658.0699191409291
0.029676444997652693      658.6141634506542
0.02987792143862772       659.1689951712993
0.030079137465411736      659.7344143028646
0.030280353522169904      660.31042084535
0.030481830052951155      660.8970147987555
0.030683826494280624      661.4941961630813
0.030886600287113104      662.1019649383271
0.03108937405397396       662.7001179380343
0.03129137046962597       663.2919449324428
0.03149284697492751       663.8774459215525
0.03169406300630604       664.4566209053637
0.03189527900771217       665.0294698838761
0.03209675542321274       665.59599285709
0.03229875168958166       666.156189825005
0.03250152524824737       666.7100607876214
0.03269212537051706       667.1625380989551
0.03288207855170127       667.5892378507507
0.033071599207635916      667.990160043008
0.033260903223866156      668.3653046757271
0.033450207227117564      668.7146717489081
0.033639727844160215      669.038261262551
0.03382968096067204       669.3360732166557
0.034020280992707694      669.6081076112222
0.034180569669686675      669.8030086637583
0.03434047166984347       669.9848811965408
0.0345001153779836        670.1537252095696
0.03465962980257096       670.3095407028449
0.03481914426574675       670.4523276763665
0.034978788089558385      670.5820861301345
0.03513869028218957       670.6988160641489
0.035298979227982585      670.8025174784096
