% Model:              brazing.mph
% Version:            COMSOL 5.3.0.223
% Date:               Oct 24 2018, 03:35
% Dimension:          1
% Nodes:              225
% Expressions:        1
% Description:        Line graph
% x                       Height
0                         680.1909844027467
2.3022181212578358E-4     680.0471185106095
4.5999325066962656E-4     679.8712435220544
6.894940081029028E-4      679.6633594370819
9.189044129547812E-4      679.4234662556918
0.001148405006736289      679.1515639778842
0.0013781761183620641     678.8476526036586
0.001608397441069865      678.5117321330157
0.001839314118928521      677.7859920529054
0.0020697760201574002     677.060140129503
0.002299964597801726      676.3341763628085
0.0025300619515304015     675.608100752822
0.0027602503975112853     674.8819132995438
0.0029907120357255193     674.1556140029732
0.003221628319839081      673.4292028631107
0.0034518885683530987     672.4900688833706
0.0036816980188178403     671.5410870035782
0.003911236592567028      670.5822572237336
0.004140684848157368      669.6135795438366
0.004370223557282477      668.6350539638876
0.004600033278179856      667.6466804838859
0.004830293931548535      666.6484591038322
0.005060048526376791      665.4597826511832
0.005289355629682316      664.2833288876053
0.005518393850920054      663.1190978130983
0.005747342428834         661.9670894276625
0.00597638081262499       660.8273037312979
0.006205688240655705      659.6997407240041
0.006435443321622868      658.5844004057816
0.006665339619110656      657.3858387675386
0.006894787442849326      656.2088062721416
0.007123965728649401      655.0533029195908
0.007353054043912613      653.9193287098864
0.007582232167524012      652.8068836430283
0.007811679667266285      651.715967719016
0.008041575479707366      650.6465809378502
0.008271887219609135      649.5690330417477
0.008501747728772392      648.5295942730276
0.008731337046705121      647.5282646316896
0.008960835851156599      646.5650441177338
0.009190425033567954      645.6399327311605
0.009420285272008154      644.752930471969
0.009650596606620833      643.90403734016
0.009881512912836019      643.0837324573494
0.010111974573021956      642.3163055236587
0.010342163040896366      641.6017565390877
0.010572260416492441      640.9400855036366
0.010802449016030204      640.3312924173057
0.011032910939230619      639.7753772800943
0.011263827639190652      639.2723400920029
0.011494048967061755      638.7953221991547
0.011723820083820682      638.3977459651448
0.011953320682717213      638.0796113899733
0.012182731092678062      637.8409184736399
0.012412231855226382      637.6816672161455
0.012642003298903411      637.6018576174887
0.012872225116192546      637.6014896776707
0.013102446994778118      637.4585395700337
0.013332218499393473      637.4157389705956
0.01356171932266464       637.4730878793563
0.013791129793276359      637.6305862963158
0.01402063045289555       637.8882342214745
0.014250401630592404      638.2460316548317
0.014480623019759359      638.7039785963879
0.014711539835704642      638.9980578367805
0.014942001874208778      639.3774207919585
0.015172190588640395      639.8420674619217
0.01540228807899374       640.39199784667
0.015632476661762654      641.0272119462041
0.015862938437253588      641.7477097605229
0.01609385485945594       642.5534912896272
0.016324115336228646      643.278239418008
0.016553925013622208      644.0447252054081
0.016783463813500554      644.8529486518271
0.017012912294953733      645.7029097572654
0.01724245123020976       646.5946085217231
0.01747226117803945       647.5280449451997
0.017702522059672054      648.5032190276956
0.017932276794613372      649.480121591611
0.018161584037218948      650.4841049608481
0.018390622397267263      651.5151691354068
0.018619571113827754      652.5733141152874
0.018848609636427344      653.6585399004902
0.019077917203754128      654.7708464910141
0.019307672424828403      655.9102338868602
0.019537568573699274      656.9518618865562
0.01976701624968263       658.0088978611587
0.019996194388245302      659.0813418106679
0.020225282556443316      660.1691937350837
0.020454460532815345      661.2724536344062
0.02068390788479834       662.391121508635
0.020913803548616574      663.5251973577705
0.02114411498977932       664.4440615887605
0.021373975201947604      665.3747767585561
0.02160356422393484       666.317342867157
0.02183306273279162       667.2717599145632
0.02206265161925901       668.2380279007749
0.02229251156070728       669.2161468257918
0.02252282259658549       670.2061166896142
0.022753738766914562      670.8651632907807
0.022984200292012823      671.5235423773065
0.023214388625279938      672.1812539491916
0.023444485866429166      672.8382980064364
0.023674674331359946      673.4946745490407
0.023905136119473275      674.1503835770043
0.024136052683548088      674.8054250903274
0.024366274021741702      675.0583090360585
0.024596045148762867      675.308967903353
0.024825545757885373      675.5574016922108
0.02505495617806012       675.8036104026322
0.02528445695083446       676.0475940346172
0.025514228404773787      676.2893525881652
0.025744450232385536      676.5288860632769
0.025974672267095825      676.4161762601038
0.026204443926923768      676.2774839721325
0.02643394490485871       676.1128091993628
0.02666335552995085       675.9221519417947
0.026892856344233315      675.7055121994287
0.02712262767714175       675.4628899722641
0.02735284922243193       675.1942852603012
0.027583766528201624      674.5291102827091
0.027814229053652367      673.8509518732392
0.028044418253299775      673.1598100318917
0.02827451622829193       672.4556847586664
0.028504705296278778      671.7385760535637
0.028735167558720572      671.0084839165829
0.028966084470753738      670.2654083477246
0.029196345605491433      669.3588831475328
0.02942615593701711       668.4189729023332
0.02965569538872289       667.4456776121255
0.029885144521236064      666.4389972769097
0.030114684108324883      665.3989318966863
0.030344494710297387      664.3254814714546
0.030574756249911007      663.2186460012151
0.030804511377321087      662.0145062631619
0.031033819010118435      660.8009250454343
0.031262857758987544      659.5779023480319
0.03149180686390927       658.345438170955
0.031720845775323685      657.103532514204
0.031950153732830305      655.852185377778
0.032179909346355486      654.5913967616777
0.0324098051544111        653.3409095529051
0.032639252491552244      652.0990831832443
0.03286843029245836       650.8659176526946
0.0330975181233935        649.6414129612567
0.03332669576210278       648.4255691089304
0.03355614277523119       647.2183860957153
0.033786038098215655      646.019863921612
0.034016348759356954      644.8716739519964
0.03424620819605658       643.7608078034266
0.034475796445315066      642.6872654759019
0.03470529418235937       641.6510469694226
0.03493488229610333       640.6521522839894
0.035164741462093585      639.6905814196011
0.03539505171796626       638.7663343762586
0.035625967353597694      637.9075328017531
0.03585642834714083       637.1088762935443
0.036086616150743635      636.3703648516323
0.03631671286286018       635.6919984760168
0.03654690079812825       635.0737771666984
0.036777362054689705      634.5157009236763
0.03700827808407173       634.0177697469511
0.03723849938140827       633.5764138942927
0.03746827046781093       633.2214573865542
0.03769777103645843       632.9529002237354
0.03792718141620601       632.7707424058365
0.0381566821485052        632.6749839328577
0.03838645356182577       632.6656248047984
0.03861667534858004       632.7426650216591
0.038846895274787324      632.7289142112494
0.039076664838430766      632.8207406555139
0.03930616372759302       633.0181443544525
0.03953557226638858       633.3211253080653
0.039765070991905134      633.7296835163528
0.039994840228642616      634.243818979314
0.040225059665450036      634.8635316969497
0.04045597761776665       635.3762989977818
0.04068644078597457       635.9757994620929
0.04091663062609736       636.6620330898832
0.041146729240799984      637.4349998811525
0.04137691894925231       638.2946998359013
0.04160738185443156       639.2411329541288
0.04183829941298208       640.2742992358358
0.04206856149768976       641.2591731833149
0.04229837277362926       642.2833034079683
0.04252791316640542       643.3466899097958
0.04275736323887129       644.4493326887977
0.04298690376702529       645.5912317449738
0.04321671531340127       646.7723870783238
0.04344697780296935       647.9927986888482
0.043676731016186174      649.2696145844062
0.04390603674591497       650.5562027664806
0.04413507359840861       651.852563235071
0.04436402080919017       653.1586959901778
0.044593057824233256      654.474601031801
0.04482236387867965       655.8002783599402
0.045052117578024006      657.1357279745957
0.045282012653644836      658.4727674693115
0.045511459262636354      659.7931162264471
0.04574063633797325       661.0967742460019
0.04596972344420469       662.3837415279763
0.046198900357357554      663.6540180723707
0.046428346642361965      664.9076038791843
0.04665824123294997       666.1444989484177
0.04688855484177433       667.2897605702486
0.04711841720894409       668.410613786672
0.04734800837831597       669.5070585976872
0.04757750903201372       670.5790950032948
0.047807100065861544      671.6267230034947
0.04803696216230292       672.6499425982867
0.04826727536583021       673.6487537876709
0.048498193048686675      674.4330468358326
0.048728656077441146      675.1889772315741
0.04895884590902903       675.9165449748958
0.04918894464672031       676.6157500657974
0.04941913460997818       677.2865925042795
0.04964959790176041       677.9290722903412
0.04988051597838159       678.5431894239831
0.05011073543954296       678.8225296925358
0.0503405047004922        679.0872229657977
0.05057000345013497       679.3372692437687
0.05079941201302823       679.5726685264491
0.05102891092631677       679.7934208138392
0.05125868051417213       679.9995261059382
0.051488900464733596      680.1909844027467
