% Model:              brazing.mph
% Version:            COMSOL 5.3.0.223
% Date:               Oct 24 2018, 03:12
% Dimension:          1
% Nodes:              145
% Expressions:        1
% Description:        Line graph
% x                       Height
0                         661.1819962753585
1.8037553861809572E-4     661.4546683253776
3.5951128344368776E-4     661.6710292805171
5.377561773732229E-4      661.8310791407775
7.154644111300318E-4      661.9348179061587
8.929933875627798E-4      661.9822455766604
0.0010707015910786408     661.9733621522828
0.0012489464247083767     661.9081676330256
0.0014280820795340731     661.7866620188894
0.0016084574989771061     661.6088453098738
0.0017793134314883058     661.5401743445552
0.0019491114898538484     661.4456543625654
0.002118149876008701      661.3252853639048
0.0022867308232763497     661.1790673485731
0.002455159027530182      661.0070003165703
0.0026237400128558564     660.8090842678967
0.0027927784749207734     660.5853192025518
0.0029625766466419693     660.335705120536
0.0031334327293582195     660.0602420218493
0.0033042867504275058     659.8794121772897
0.0034740828875811486     659.6928723371524
0.0036431193341009516     659.5006225014379
0.0038116983146850476     659.3026626701458
0.003980124516686077      659.0989928432762
0.004148703455848711      658.889613020829
0.004317739819749776      658.6745232028045
0.004487535833529769      658.4537233892021
0.004658389691119368      658.2272135800225
0.0048387629974717405     658.101389024371
0.005017896580971026      657.9799376575078
0.005196139373513023      657.8628594794332
0.0053738455543625        657.750154490147
0.005551372514551955      657.6418226896494
0.005729078726427549      657.5378640779404
0.005907321580834967      657.4382786550196
0.006086455256670912      657.3430664208875
0.006266828685292636      657.2522273755438
0.0064472042239161545     657.4059971831296
0.0066263399687470585     657.5675595915174
0.00680458486268183       657.7369146007077
0.0069822930964438265     657.9140622107003
0.007159822072881748      658.0990024214951
0.007337530276402798      658.2917352330924
0.007515775110037768      658.4922606454916
0.007694910764868775      658.7005786586933
0.007875286184317232      658.9166892726973
0.008046142116827224      659.1962862865698
0.008215940175191578      659.4667894126569
0.008384978561345261      659.7281986509589
0.008553559508611747      659.9805140014756
0.008721987712864422      660.2237354642072
0.008890568698188937      660.4578630391534
0.00905960716025268       660.6828967263144
0.009229405331972688      660.8988365256901
0.009400261414687729      661.1056824372806
0.009571115435747398      661.4357441060492
0.009740911572891598      661.7348421097464
0.009909948019402086      662.0029764483724
0.010078526999976944      662.2401471219268
0.010246953201968763      662.4463541304101
0.010415532141122159      662.6215974738218
0.010584568505013912      662.7658771521623
0.010754364518784467      662.8791931654313
0.010925218376364454      662.9615455136291
0.011105591682722255      663.1276307877789
0.01128472526622686       663.2459112820868
0.011462968058774099      663.3163869965533
0.011640674239628768      663.3390579311781
0.011818201199823401      663.3139240859612
0.01199590741170419       663.2409854609024
0.012174150266116847      663.1202420560021
0.012353283941958112      662.9516938712599
0.012533657370585264      662.7353409066762
0.01271403176453574       662.7015190925803
0.012893166387683227      662.6114525932081
0.013071410176518557      662.4651414085603
0.013249117315197753      662.2625855386366
0.013426645199902413      662.003784983437
0.013604352308338922      661.6887397429616
0.01378259603687098       661.31744981721
0.013961730570013379      660.8899152061828
0.014142104844781908      660.4061359098796
0.014312959944399205      659.9964477898365
0.014482757184992078      659.5616827177022
0.014651794764271453      659.101840693477
0.014820374911240972      658.6169217171608
0.014988802317395246      658.1069257887536
0.01515738250242126       657.5718529082557
0.015326420157607648      657.0117030756664
0.015496217511551624      656.4264762909862
0.015667072761367945      655.8161725542151
0.01583792791479403       655.2899489012716
0.016007725163749622      654.7712945988058
0.01617676270725794       654.2602096468178
0.01634534277588875       653.7566940453075
0.016513770062946447      653.2607477942752
0.01668235009015449       652.7723708937204
0.016851387551041475      652.2915633436437
0.017021184676619543      651.8183251440446
0.017192039666560827      651.3526562949235
0.017372413817338207      650.9716868316619
0.017551548228302124      650.6167050959149
0.017729791836073705      650.2877110876825
0.017907498824762332      649.9847048069647
0.018085026590318725      649.7076862537617
0.018262733610032132      649.4566554280732
0.018440977279666457      649.2316123298993
0.018620111782963036      649.0325569592401
0.018800486056004474      648.8594893160955
0.018980860449944497      648.9526345973773
0.019159995073081745      649.0775376311166
0.019338238861906984      649.234198417314
0.01951594600057618       649.4226169559691
0.019693473885270874      649.6427932470822
0.019871180993697383      649.894727290653
0.020049424722219357      650.1784190866816
0.02022855925535152       650.4938686351679
0.0204089335301096        650.8410759361124
0.02057978862980686       651.2545425836787
0.020749585870478253      651.670384843121
0.020918623449835097      652.08860271444
0.021087203596881453      652.5091961976351
0.021255631003112355      652.9321652927066
0.021424211188215206      653.3575099996543
0.021593248843479067      653.7852303184784
0.021763046197501558      654.2153262491786
0.02193390144739785       654.6477977917552
0.022104756600747556      655.2331565872565
0.02227455384962815       655.7916851926142
0.02244359139306247       656.3233836078285
0.022612171461619885      656.8282518328995
0.022780598748604386      657.3062898678269
0.022949178775739036      657.757497712611
0.02311821623655202       658.1818753672513
0.023288013362055097      658.5794228317484
0.023458868351919994      658.950140106102
0.02363924250270423       659.3924689148272
0.023818376913674867      659.7862115260724
0.023996620521453065      660.1313679398381
0.02417432751014825       660.4279381561241
0.02435185527571118       660.6759221749304
0.024529562295431146      660.8753199962572
0.02470780596507209       661.0261316201038
0.024886940468375387      661.128357046471
0.025067314741423676      661.1819962753585
