% Model:              brazing.mph
% Version:            COMSOL 5.3.0.223
% Date:               Oct 24 2018, 03:39
% Dimension:          1
% Nodes:              225
% Expressions:        1
% Description:        Line graph
% x                       Height
0                         732.40520297254
2.3022181212578358E-4     732.2396649479506
4.5999325066962656E-4     732.0489757520733
6.894940081029028E-4      731.8331353849077
9.189044129547812E-4      731.5921438464543
0.001148405006736289      731.3260011367133
0.0013781761183620641     731.0347072556838
0.001608397441069865      730.7182622033665
0.001839314118928521      729.9673148681588
0.0020697760201574002     729.221469984442
0.002299964597801726      728.4807275522155
0.0025300619515304015     727.74508757148
0.0027602503975112853     727.0145500422352
0.0029907120357255193     726.2891149644809
0.003221628319839081      725.5687823382174
0.0034518885683530987     724.6172492472314
0.0036816980188178403     723.6537707923401
0.003911236592567028      722.6783469735432
0.004140684848157368      721.6909777908412
0.004370223557282477      720.6916632442342
0.004600033278179856      719.6804033337214
0.004830293931548535      718.6571980593036
0.005060048526376791      717.45305572906
0.005289355629682316      716.2596185560182
0.005518393850920054      715.076886540178
0.005747342428834         713.9048596815393
0.00597638081262499       712.7435379801027
0.006205688240655705      711.5929214358672
0.006435443321622868      710.4530100488338
0.006665339619110656      709.2388257106429
0.006894787442849326      708.0439587614162
0.007123965728649401      706.8684092011537
0.007353054043912613      705.7121770298552
0.007582232167524012      704.5752622475212
0.007811679667266285      703.4576648541508
0.008041575479707366      702.3593848497449
0.008271887219609135      701.2615214215033
0.008501747728772392      700.2001547262183
0.008731337046705121      699.1752847638896
0.008960835851156599      698.1869115345172
0.009190425033567954      697.2350350381016
0.009420285272008154      696.3196552746421
0.009650596606620833      695.4407722441391
0.009881512912836019      694.5960893186729
0.010111974573021956      693.8030362802999
0.010342163040896366      693.0616131290207
0.010572260416492441      692.3718198648348
0.010802449016030204      691.7336564877427
0.011032910939230619      691.1471229977437
0.011263827639190652      690.6122193948385
0.011494048967061755      690.103746717041
0.011723820083820682      689.6767201529323
0.011953320682717213      689.3311397025124
0.012182731092678062      689.0670053657813
0.012412231855226382      688.8843171427395
0.012642003298903411      688.783075033386
0.012872225116192546      688.7632790377216
0.013102446994778118      688.5702246977805
0.013332218499393473      688.4832121886493
0.01356171932266464       688.5022415103277
0.013791129793276359      688.6273126628157
0.01402063045289555       688.8584256461137
0.014250401630592404      689.195580460221
0.014480623019759359      689.6387771051382
0.014711539835704642      689.8856415337788
0.014942001874208778      690.2228542255708
0.015172190588640395      690.6504151805138
0.01540228807899374       691.1683243986081
0.015632476661762654      691.776581879854
0.015862938437253588      692.4751876242507
0.01609385485945594       693.2641416317988
0.016324115336228646      693.9573093024329
0.016553925013622208      694.6921069437676
0.016783463813500554      695.4685345558028
0.017012912294953733      696.2865921385381
0.01724245123020976       697.1462796919745
0.01747226117803945       698.0475972161112
0.017702522059672054      698.9905447109484
0.017932276794613372      699.9450289787553
0.018161584037218948      700.9261217327479
0.018390622397267263      701.9338229729262
0.018619571113827754      702.9681326992905
0.018848609636427344      704.029050911841
0.019077917203754128      705.1165776105767
0.019307672424828403      706.2307127954984
0.019537568573699274      707.2589231530308
0.01976701624968263       708.3016038619189
0.019996194388245302      709.3587549221628
0.020225282556443316      710.4303763337628
0.020454460532815345      711.5164680967188
0.02068390788479834       712.6170302110304
0.020913803548616574      713.732062676698
0.02114411498977932       714.6401649475199
0.021373975201947604      715.5599137100874
0.02160356422393484       716.4913089644004
0.02183306273279162       717.4343507104593
0.02206265161925901       718.3890389482641
0.02229251156070728       719.3553736778141
0.02252282259658549       720.3333548991101
0.022753738766914562      720.9827552236522
0.022984200292012823      721.631826235305
0.023214388625279938      722.2805679340678
0.023444485866429166      722.9289803199413
0.023674674331359946      723.5770633929253
0.023905136119473275      724.2248171530194
0.024136052683548088      724.8722416002241
0.024366274021741702      725.1097666108838
0.024596045148762867      725.3498789471728
0.024825545757885373      725.5925786090913
0.02505495617806012       725.8378655966393
0.02528445695083446       726.0857399098172
0.025514228404773787      726.3362015486241
0.025744450232385536      726.5892505130608
0.025974672267095825      726.4351950860766
0.026204443926923768      726.264906016689
0.02643394490485871       726.0783833048982
0.02666335552995085       725.8756269507044
0.026892856344233315      725.6566369541077
0.02712262767714175       725.4214133151074
0.02735284922243193       725.1699560337042
0.027583766528201624      724.4734206018531
0.027814229053652367      723.7726944124445
0.028044418253299775      723.0677774654783
0.02827451622829193       722.3586697609543
0.028504705296278778      721.6453712988732
0.028735167558720572      720.9278820792341
0.028966084470753738      720.2062021020377
0.029196345605491433      719.2986579640883
0.02942615593701711       718.3588640242458
0.02965569538872289       717.3868202825103
0.029885144521236064      716.3825267388813
0.030114684108324883      715.3459833933596
0.030344494710297387      714.2771902459442
0.030574756249911007      713.1761472966359
0.030804511377321087      711.9887662921092
0.031033819010118435      710.7916580769696
0.031262857758987544      709.5848226512163
0.03149180686390927       708.3682600148499
0.031720845775323685      707.1419701678705
0.031950153732830305      705.9059531102772
0.032179909346355486      704.660208842071
0.0324098051544111        703.4381552793965
0.032639252491552244      702.2235689782649
0.03286843029245836       701.0164499386763
0.0330975181233935        699.8167981606306
0.03332669576210278       698.6246136441282
0.03355614277523119       697.4398963891682
0.033786038098215655      696.2626463957516
0.034016348759356954      695.1476017742534
0.03424620819605658       694.068874496481
0.034475796445315066      693.0264645624341
0.03470529418235937       692.0203719721126
0.03493488229610333       691.050596725517
0.035164741462093585      690.1171388226469
0.03539505171796626       689.2199982635025
0.035625967353597694      688.3955541705311
0.03585642834714083       687.6304187805889
0.036086616150743635      686.9245920936755
0.03631671286286018       686.2780741097913
0.03654690079812825       685.6908648289366
0.036777362054689705      685.1629642511107
0.03700827808407173       684.6943723763139
0.03723849938140827       684.2839299543211
0.03746827046781093       683.9614246395008
0.03769777103645843       683.7268564318532
0.03792718141620601       683.5802253313782
0.0381566821485052        683.5215313380762
0.03838645356182577       683.5507744519464
0.03861667534858004       683.6679546729895
0.038846895274787324      683.6696214105027
0.039076664838430766      683.7813970307138
0.03930616372759302       684.0032815336225
0.03953557226638858       684.3352749192289
0.039765070991905134      684.7773771875335
0.039994840228642616      685.3295883385352
0.040225059665450036      685.9919083722351
0.04045597761776665       686.5204042100523
0.04068644078597457       687.1391632996944
0.04091663062609736       687.848185641161
0.041146729240799984      688.6474712344525
0.04137691894925231       689.537020079569
0.04160738185443156       690.5168321765099
0.04183829941298208       691.5869075252757
0.04206856149768976       692.59733801897
0.04229837277362926       693.6458590821242
0.04252791316640542       694.7324707147382
0.04275736323887129       695.8571729168118
0.04298690376702529       697.0199656883458
0.04321671531340127       698.2208490293391
0.04344697780296935       699.4598229397925
0.043676731016186174      700.7635895942814
0.04390603674591497       702.0754296901536
0.04413507359840861       703.3953432274096
0.04436402080919017       704.7233302060494
0.044593057824233256      706.059390626073
0.04482236387867965       707.40352448748
0.045052117578024006      708.7557317902709
0.045282012653644836      710.1216912157968
0.045511459262636354      711.468950851488
0.04574063633797325       712.7975106973439
0.04596972344420469       714.1073707533651
0.046198900357357554      715.3985310195516
0.046428346642361965      716.6709914959026
0.04665824123294997       717.9247521824191
0.04688855484177433       719.0964837531408
0.04711841720894409       720.2423033705975
0.04734800837831597       721.3622110347892
0.04757750903201372       722.4562067457157
0.047807100065861544      723.5242905033774
0.04803696216230292       724.5664623077737
0.04826727536583021       725.5827221589051
0.048498193048686675      726.3892097852222
0.048728656077441146      727.1664675065483
0.04895884590902903       727.9144953228837
0.04918894464672031       728.6332932342281
0.04941913460997818       729.3228612405819
0.04964959790176041       729.9831993419443
0.04988051597838159       730.6143075383161
0.05011073543954296       730.9075881236131
0.0503405047004922        731.1883892487741
0.05057000345013497       731.4567109137992
0.05079941201302823       731.7125531186882
0.05102891092631677       731.9559158634415
0.05125868051417213       732.1867991480588
0.051488900464733596      732.40520297254
