% Model:              brazing.mph
% Version:            COMSOL 5.3.0.316
% Date:               Oct 24 2018, 18:19
% Table:              Table 3 - 
% Time (s)               Temperature (No parameters = null) (degC), Point: 55Temperature (No parameters = null) (degC), Point: 56Temperature (No parameters = null) (degC), Point: 60Temperature (No parameters = null) (degC), Point: 69Temperature (No parameters = null) (degC), Point: 90Temperature (No parameters = null) (degC), Point: 98Temperature (No parameters = null) (degC), Point: 102Temperature (No parameters = null) (degC), Point: 127Temperature (No parameters = null) (degC), Point: 128Temperature (No parameters = null) (degC), Point: 134Temperature (No parameters = null) (degC), Point: 138Temperature (No parameters = null) (degC), Point: 151Temperature (No parameters = null) (degC), Point: 154Temperature (No parameters = null) (degC), Point: 159Temperature (No parameters = null) (degC), Point: 163Temperature (No parameters = null) (degC), Point: 167Temperature (No parameters = null) (degC), Point: 168Temperature (No parameters = null) (degC), Point: 172Temperature (No parameters = null) (degC), Point: 181Temperature (No parameters = null) (degC), Point: 201Temperature (No parameters = null) (degC), Point: 210Temperature (No parameters = null) (degC), Point: 213Temperature (No parameters = null) (degC), Point: 215Temperature (No parameters = null) (degC), Point: 229Temperature (No parameters = null) (degC), Point: 232Temperature (No parameters = null) (degC), Point: 239Temperature (No parameters = null) (degC), Point: 252Temperature (No parameters = null) (degC), Point: 261Temperature (No parameters = null) (degC), Point: 270Temperature (No parameters = null) (degC), Point: 273Temperature (No parameters = null) (degC), Point: 275
0                        21.58187890236377        21.010949003727944       21.130911243283435       21.008016007641913       21.013399500915057       21.118093480304765       21.006701376535148       21.026098137511326       21.00137716487052        21.027030715252806       21.00084443216093        21.00036064090409        21.010098510787373       21.000098713852253       21.00762862155898        21.018872192978847       21.00005176172516        21.01139555047746        21.000674403875223       21.000275511144594       21.001754705988503       21.000156063565726       21.00023894316007        21.00658941937354        21.129418337100844       21.01291921307819        21.53300011657359        21.00790907651526        21.143699322971827       21.014045154244457       21.64745557890359
3                        284.3811657784182        249.60331827702657       258.7603873931597        254.08123838448853       206.26002200805988       213.06611887890585       208.8085632139921        204.50124612655134       201.15100340634234       206.63127463939622       206.84997298138552       201.96884431627996       200.95160669520038       194.34493627062614       197.37888964503395       217.47744329173298       213.14389308514637       221.8897719957564        223.33670871286017       217.4013193913304        216.474640195772         210.0315246049338        212.5996870008994        209.96040245160526       214.7874919140354        207.39083197028793       239.05991015391555       255.98168412012103       260.93281113236776       249.30478449354553       289.03776388685037
6                        403.69156608240587       367.4699157982194        379.96172572230535       375.8706778652529        314.88017711892974       324.6252056737068        320.8812760452022        314.313343177226         309.6980317854441        318.1467981645151        318.8821986371793        313.9609400254719        312.4285235466525        302.84527834578967       307.13932632672345       335.7300173845309        329.88412581598345       342.1494366871551        344.22303270270334       338.0153098390348        336.523481629604         326.74479604396856       330.7662449552636        321.9140910487314        326.21732671084897       315.8177921872307        348.763254578142         375.66490315891326       380.0109417586276        364.8208881344939        406.1017166907867
9                        479.92210979537685       442.7550471928008        457.84031706939356       454.3996498919503        387.5740979929285        399.90429197252547       396.79412078717235       387.8786214021078        382.33748245363745       393.394682689963         394.7669101299384        389.83277504502337       387.66461073013875       375.46963759607127       380.68278670580514       411.14756847028946       404.31203991588245       419.2926229862428        422.0433584738462        415.8904076169996        413.7553387706099        401.36260722563384       406.3413282818949        397.7606361420435        401.4183551188901        388.3872462445587        422.26429268632205       452.8009235810613        456.47547701415056       438.5199278504581        480.81932110266825
12                       531.2523960389316        493.4478863017589        510.50324765609923       507.64419431549675       438.9803470615575        453.4196173221301        450.9011283409494        439.92744724591614       433.70798557589444       446.8906238907209        448.85688705728865       443.91714927590635       441.15495649975344       426.8304716239152        432.71630451179624       461.96605992914976       454.4640675350373        471.49766357234034       474.8499616090206        468.75793574658303       466.03681429486244       451.63979229036545       457.26804730239814       451.8307291158677        454.88586196227766       439.7119235037046        474.270579406008         505.21403599997814       508.2815846499441        488.2182724967387        531.2079251279
15                       568.6198600126172        530.3635957592487        548.9361270015171        546.5673844608394        477.98647886884305       494.12999251647864       492.12413528784236       479.42247645651526       472.69054976805216       487.58892522650035       490.06958978282364       485.1278167443095        481.8506947322036        465.8060574785468        472.1999099020953        499.0231438618024        491.0501641196465        509.6578624586142        513.5153647309705        507.4734579031866        504.25153682421524       488.29775017517716       494.38918065199255       493.0335212359198        495.5665928187897        478.66359744586805       513.7366632291756        543.6614539545709        546.2124327979202        524.5203287667875        568.0007542323673
18                       598.5151243393636        559.9144463523386        579.7018659180377        577.744439118692         509.9652148370478        527.5181372156562        525.9518858366572        511.7926309265338        504.6531637621224        520.9693025592331        523.8909245006234        518.9487185690513        515.2298956377658        497.7631552404523        504.5609720419902        528.7214348568874        520.3906053439531        540.2544239195988        544.5348393674745        538.5383177609971        534.8924961116519        517.6846705589943        524.1306754070977        526.8501146133399        528.9355369752901        510.6042919331552        546.0860734964028        574.5619528302079        576.6766491859768        553.6775567016008        597.5323500973202
21                       623.9166705252786        585.0399278419767        605.8346146253972        604.2283450992828        537.5007424687626        556.2549562461925        555.0726678628364        539.6544205041648        532.1773316282519        549.7010370728162        553.0076815668835        548.065960410137         543.9613027256487        525.2829445613543        532.415368161299         553.9912190732218        545.3745498375115        566.2767719317554        570.9176723281852        564.9654932407684        560.9557973458958        542.7047127792944        549.4354793733767        555.9651869566379        557.659701208881         538.1124875793454        573.9325396467042        600.883477394918         602.6242862891318        578.5413982577516        622.6957577036394
24                       646.5214035718601        607.4141208590953        629.0686259254499        627.7674536738682        562.155495433221         581.9627390015027        581.1226312200696        564.5908545846795        556.8238167976647        575.4054252121316        579.0551029821986        574.1143816845346        569.6658816787599        549.9259146529909        557.3456417843893        576.5026615670305        567.6480645279281        589.4344599479846        594.3881307377313        588.4786634546618        584.152000058885         565.0093323825772        571.9779041943196        582.0127285036378        583.3589724346306        562.7469910299374        598.8572762488656        624.3247550304296        625.7403337396105        600.7337484855063        645.1374198553456
27                       667.2412713916027        627.93672527584          650.3377576754056        649.3043984988373        584.8342700941315        605.582402381034         605.0515429726673        587.5186752045156        579.4964273709259        599.0228057678968        602.9824313314518        598.0429726446815        593.2837482028024        572.5956303719896        580.2681928047894        597.1537791413607        588.0961939057752        610.6485807709372        615.8764501583995        610.0067081886535        605.4015555139953        585.4848520784111        592.6566994410746        605.9412433159481        606.9728342873645        585.4103707812461        621.7758999199808        645.8017744331809        646.9319750140361        621.1253578532584        665.7414841993707
