% Model:              brazing.mph
% Version:            COMSOL 5.3.0.223
% Date:               Oct 24 2018, 00:38
% Table:              Table 3 - 
% Time (s)               Temperature (Cp_Al = 864.22, k_Al = 181.19, sigma_Al = 4.0873E7, rho_Al = 2658.5, Cp_inlet = 925.3, k_inlet = 148.15, sigma_inlet = 4.4248E7, rho_inlet = 3033.4, Cp_outlet = 915.5, k_outlet = 181.33, sigma_outlet = 3.6387E7, rho_outlet = 2829.1, Cp_outlet_sleeve = 885.27, k_outlet_sleeve = 135.72, sigma_outlet_sleeve = 3.9179E7, rho_outlet_sleeve = 3343.8, Cp_inlet_sleeve = 979.59, k_inlet_sleeve = 136.38, sigma_inlet_sleeve = 3.3787E7, rho_inlet_sleeve = 3130) (degC), Point: 55Temperature (Cp_Al = 864.22, k_Al = 181.19, sigma_Al = 4.0873E7, rho_Al = 2658.5, Cp_inlet = 925.3, k_inlet = 148.15, sigma_inlet = 4.4248E7, rho_inlet = 3033.4, Cp_outlet = 915.5, k_outlet = 181.33, sigma_outlet = 3.6387E7, rho_outlet = 2829.1, Cp_outlet_sleeve = 885.27, k_outlet_sleeve = 135.72, sigma_outlet_sleeve = 3.9179E7, rho_outlet_sleeve = 3343.8, Cp_inlet_sleeve = 979.59, k_inlet_sleeve = 136.38, sigma_inlet_sleeve = 3.3787E7, rho_inlet_sleeve = 3130) (degC), Point: 56Temperature (Cp_Al = 864.22, k_Al = 181.19, sigma_Al = 4.0873E7, rho_Al = 2658.5, Cp_inlet = 925.3, k_inlet = 148.15, sigma_inlet = 4.4248E7, rho_inlet = 3033.4, Cp_outlet = 915.5, k_outlet = 181.33, sigma_outlet = 3.6387E7, rho_outlet = 2829.1, Cp_outlet_sleeve = 885.27, k_outlet_sleeve = 135.72, sigma_outlet_sleeve = 3.9179E7, rho_outlet_sleeve = 3343.8, Cp_inlet_sleeve = 979.59, k_inlet_sleeve = 136.38, sigma_inlet_sleeve = 3.3787E7, rho_inlet_sleeve = 3130) (degC), Point: 60Temperature (Cp_Al = 864.22, k_Al = 181.19, sigma_Al = 4.0873E7, rho_Al = 2658.5, Cp_inlet = 925.3, k_inlet = 148.15, sigma_inlet = 4.4248E7, rho_inlet = 3033.4, Cp_outlet = 915.5, k_outlet = 181.33, sigma_outlet = 3.6387E7, rho_outlet = 2829.1, Cp_outlet_sleeve = 885.27, k_outlet_sleeve = 135.72, sigma_outlet_sleeve = 3.9179E7, rho_outlet_sleeve = 3343.8, Cp_inlet_sleeve = 979.59, k_inlet_sleeve = 136.38, sigma_inlet_sleeve = 3.3787E7, rho_inlet_sleeve = 3130) (degC), Point: 69Temperature (Cp_Al = 864.22, k_Al = 181.19, sigma_Al = 4.0873E7, rho_Al = 2658.5, Cp_inlet = 925.3, k_inlet = 148.15, sigma_inlet = 4.4248E7, rho_inlet = 3033.4, Cp_outlet = 915.5, k_outlet = 181.33, sigma_outlet = 3.6387E7, rho_outlet = 2829.1, Cp_outlet_sleeve = 885.27, k_outlet_sleeve = 135.72, sigma_outlet_sleeve = 3.9179E7, rho_outlet_sleeve = 3343.8, Cp_inlet_sleeve = 979.59, k_inlet_sleeve = 136.38, sigma_inlet_sleeve = 3.3787E7, rho_inlet_sleeve = 3130) (degC), Point: 90Temperature (Cp_Al = 864.22, k_Al = 181.19, sigma_Al = 4.0873E7, rho_Al = 2658.5, Cp_inlet = 925.3, k_inlet = 148.15, sigma_inlet = 4.4248E7, rho_inlet = 3033.4, Cp_outlet = 915.5, k_outlet = 181.33, sigma_outlet = 3.6387E7, rho_outlet = 2829.1, Cp_outlet_sleeve = 885.27, k_outlet_sleeve = 135.72, sigma_outlet_sleeve = 3.9179E7, rho_outlet_sleeve = 3343.8, Cp_inlet_sleeve = 979.59, k_inlet_sleeve = 136.38, sigma_inlet_sleeve = 3.3787E7, rho_inlet_sleeve = 3130) (degC), Point: 98Temperature (Cp_Al = 864.22, k_Al = 181.19, sigma_Al = 4.0873E7, rho_Al = 2658.5, Cp_inlet = 925.3, k_inlet = 148.15, sigma_inlet = 4.4248E7, rho_inlet = 3033.4, Cp_outlet = 915.5, k_outlet = 181.33, sigma_outlet = 3.6387E7, rho_outlet = 2829.1, Cp_outlet_sleeve = 885.27, k_outlet_sleeve = 135.72, sigma_outlet_sleeve = 3.9179E7, rho_outlet_sleeve = 3343.8, Cp_inlet_sleeve = 979.59, k_inlet_sleeve = 136.38, sigma_inlet_sleeve = 3.3787E7, rho_inlet_sleeve = 3130) (degC), Point: 102Temperature (Cp_Al = 864.22, k_Al = 181.19, sigma_Al = 4.0873E7, rho_Al = 2658.5, Cp_inlet = 925.3, k_inlet = 148.15, sigma_inlet = 4.4248E7, rho_inlet = 3033.4, Cp_outlet = 915.5, k_outlet = 181.33, sigma_outlet = 3.6387E7, rho_outlet = 2829.1, Cp_outlet_sleeve = 885.27, k_outlet_sleeve = 135.72, sigma_outlet_sleeve = 3.9179E7, rho_outlet_sleeve = 3343.8, Cp_inlet_sleeve = 979.59, k_inlet_sleeve = 136.38, sigma_inlet_sleeve = 3.3787E7, rho_inlet_sleeve = 3130) (degC), Point: 127Temperature (Cp_Al = 864.22, k_Al = 181.19, sigma_Al = 4.0873E7, rho_Al = 2658.5, Cp_inlet = 925.3, k_inlet = 148.15, sigma_inlet = 4.4248E7, rho_inlet = 3033.4, Cp_outlet = 915.5, k_outlet = 181.33, sigma_outlet = 3.6387E7, rho_outlet = 2829.1, Cp_outlet_sleeve = 885.27, k_outlet_sleeve = 135.72, sigma_outlet_sleeve = 3.9179E7, rho_outlet_sleeve = 3343.8, Cp_inlet_sleeve = 979.59, k_inlet_sleeve = 136.38, sigma_inlet_sleeve = 3.3787E7, rho_inlet_sleeve = 3130) (degC), Point: 128Temperature (Cp_Al = 864.22, k_Al = 181.19, sigma_Al = 4.0873E7, rho_Al = 2658.5, Cp_inlet = 925.3, k_inlet = 148.15, sigma_inlet = 4.4248E7, rho_inlet = 3033.4, Cp_outlet = 915.5, k_outlet = 181.33, sigma_outlet = 3.6387E7, rho_outlet = 2829.1, Cp_outlet_sleeve = 885.27, k_outlet_sleeve = 135.72, sigma_outlet_sleeve = 3.9179E7, rho_outlet_sleeve = 3343.8, Cp_inlet_sleeve = 979.59, k_inlet_sleeve = 136.38, sigma_inlet_sleeve = 3.3787E7, rho_inlet_sleeve = 3130) (degC), Point: 134Temperature (Cp_Al = 864.22, k_Al = 181.19, sigma_Al = 4.0873E7, rho_Al = 2658.5, Cp_inlet = 925.3, k_inlet = 148.15, sigma_inlet = 4.4248E7, rho_inlet = 3033.4, Cp_outlet = 915.5, k_outlet = 181.33, sigma_outlet = 3.6387E7, rho_outlet = 2829.1, Cp_outlet_sleeve = 885.27, k_outlet_sleeve = 135.72, sigma_outlet_sleeve = 3.9179E7, rho_outlet_sleeve = 3343.8, Cp_inlet_sleeve = 979.59, k_inlet_sleeve = 136.38, sigma_inlet_sleeve = 3.3787E7, rho_inlet_sleeve = 3130) (degC), Point: 138Temperature (Cp_Al = 864.22, k_Al = 181.19, sigma_Al = 4.0873E7, rho_Al = 2658.5, Cp_inlet = 925.3, k_inlet = 148.15, sigma_inlet = 4.4248E7, rho_inlet = 3033.4, Cp_outlet = 915.5, k_outlet = 181.33, sigma_outlet = 3.6387E7, rho_outlet = 2829.1, Cp_outlet_sleeve = 885.27, k_outlet_sleeve = 135.72, sigma_outlet_sleeve = 3.9179E7, rho_outlet_sleeve = 3343.8, Cp_inlet_sleeve = 979.59, k_inlet_sleeve = 136.38, sigma_inlet_sleeve = 3.3787E7, rho_inlet_sleeve = 3130) (degC), Point: 151Temperature (Cp_Al = 864.22, k_Al = 181.19, sigma_Al = 4.0873E7, rho_Al = 2658.5, Cp_inlet = 925.3, k_inlet = 148.15, sigma_inlet = 4.4248E7, rho_inlet = 3033.4, Cp_outlet = 915.5, k_outlet = 181.33, sigma_outlet = 3.6387E7, rho_outlet = 2829.1, Cp_outlet_sleeve = 885.27, k_outlet_sleeve = 135.72, sigma_outlet_sleeve = 3.9179E7, rho_outlet_sleeve = 3343.8, Cp_inlet_sleeve = 979.59, k_inlet_sleeve = 136.38, sigma_inlet_sleeve = 3.3787E7, rho_inlet_sleeve = 3130) (degC), Point: 154Temperature (Cp_Al = 864.22, k_Al = 181.19, sigma_Al = 4.0873E7, rho_Al = 2658.5, Cp_inlet = 925.3, k_inlet = 148.15, sigma_inlet = 4.4248E7, rho_inlet = 3033.4, Cp_outlet = 915.5, k_outlet = 181.33, sigma_outlet = 3.6387E7, rho_outlet = 2829.1, Cp_outlet_sleeve = 885.27, k_outlet_sleeve = 135.72, sigma_outlet_sleeve = 3.9179E7, rho_outlet_sleeve = 3343.8, Cp_inlet_sleeve = 979.59, k_inlet_sleeve = 136.38, sigma_inlet_sleeve = 3.3787E7, rho_inlet_sleeve = 3130) (degC), Point: 159Temperature (Cp_Al = 864.22, k_Al = 181.19, sigma_Al = 4.0873E7, rho_Al = 2658.5, Cp_inlet = 925.3, k_inlet = 148.15, sigma_inlet = 4.4248E7, rho_inlet = 3033.4, Cp_outlet = 915.5, k_outlet = 181.33, sigma_outlet = 3.6387E7, rho_outlet = 2829.1, Cp_outlet_sleeve = 885.27, k_outlet_sleeve = 135.72, sigma_outlet_sleeve = 3.9179E7, rho_outlet_sleeve = 3343.8, Cp_inlet_sleeve = 979.59, k_inlet_sleeve = 136.38, sigma_inlet_sleeve = 3.3787E7, rho_inlet_sleeve = 3130) (degC), Point: 163Temperature (Cp_Al = 864.22, k_Al = 181.19, sigma_Al = 4.0873E7, rho_Al = 2658.5, Cp_inlet = 925.3, k_inlet = 148.15, sigma_inlet = 4.4248E7, rho_inlet = 3033.4, Cp_outlet = 915.5, k_outlet = 181.33, sigma_outlet = 3.6387E7, rho_outlet = 2829.1, Cp_outlet_sleeve = 885.27, k_outlet_sleeve = 135.72, sigma_outlet_sleeve = 3.9179E7, rho_outlet_sleeve = 3343.8, Cp_inlet_sleeve = 979.59, k_inlet_sleeve = 136.38, sigma_inlet_sleeve = 3.3787E7, rho_inlet_sleeve = 3130) (degC), Point: 167Temperature (Cp_Al = 864.22, k_Al = 181.19, sigma_Al = 4.0873E7, rho_Al = 2658.5, Cp_inlet = 925.3, k_inlet = 148.15, sigma_inlet = 4.4248E7, rho_inlet = 3033.4, Cp_outlet = 915.5, k_outlet = 181.33, sigma_outlet = 3.6387E7, rho_outlet = 2829.1, Cp_outlet_sleeve = 885.27, k_outlet_sleeve = 135.72, sigma_outlet_sleeve = 3.9179E7, rho_outlet_sleeve = 3343.8, Cp_inlet_sleeve = 979.59, k_inlet_sleeve = 136.38, sigma_inlet_sleeve = 3.3787E7, rho_inlet_sleeve = 3130) (degC), Point: 168Temperature (Cp_Al = 864.22, k_Al = 181.19, sigma_Al = 4.0873E7, rho_Al = 2658.5, Cp_inlet = 925.3, k_inlet = 148.15, sigma_inlet = 4.4248E7, rho_inlet = 3033.4, Cp_outlet = 915.5, k_outlet = 181.33, sigma_outlet = 3.6387E7, rho_outlet = 2829.1, Cp_outlet_sleeve = 885.27, k_outlet_sleeve = 135.72, sigma_outlet_sleeve = 3.9179E7, rho_outlet_sleeve = 3343.8, Cp_inlet_sleeve = 979.59, k_inlet_sleeve = 136.38, sigma_inlet_sleeve = 3.3787E7, rho_inlet_sleeve = 3130) (degC), Point: 172Temperature (Cp_Al = 864.22, k_Al = 181.19, sigma_Al = 4.0873E7, rho_Al = 2658.5, Cp_inlet = 925.3, k_inlet = 148.15, sigma_inlet = 4.4248E7, rho_inlet = 3033.4, Cp_outlet = 915.5, k_outlet = 181.33, sigma_outlet = 3.6387E7, rho_outlet = 2829.1, Cp_outlet_sleeve = 885.27, k_outlet_sleeve = 135.72, sigma_outlet_sleeve = 3.9179E7, rho_outlet_sleeve = 3343.8, Cp_inlet_sleeve = 979.59, k_inlet_sleeve = 136.38, sigma_inlet_sleeve = 3.3787E7, rho_inlet_sleeve = 3130) (degC), Point: 181Temperature (Cp_Al = 864.22, k_Al = 181.19, sigma_Al = 4.0873E7, rho_Al = 2658.5, Cp_inlet = 925.3, k_inlet = 148.15, sigma_inlet = 4.4248E7, rho_inlet = 3033.4, Cp_outlet = 915.5, k_outlet = 181.33, sigma_outlet = 3.6387E7, rho_outlet = 2829.1, Cp_outlet_sleeve = 885.27, k_outlet_sleeve = 135.72, sigma_outlet_sleeve = 3.9179E7, rho_outlet_sleeve = 3343.8, Cp_inlet_sleeve = 979.59, k_inlet_sleeve = 136.38, sigma_inlet_sleeve = 3.3787E7, rho_inlet_sleeve = 3130) (degC), Point: 201Temperature (Cp_Al = 864.22, k_Al = 181.19, sigma_Al = 4.0873E7, rho_Al = 2658.5, Cp_inlet = 925.3, k_inlet = 148.15, sigma_inlet = 4.4248E7, rho_inlet = 3033.4, Cp_outlet = 915.5, k_outlet = 181.33, sigma_outlet = 3.6387E7, rho_outlet = 2829.1, Cp_outlet_sleeve = 885.27, k_outlet_sleeve = 135.72, sigma_outlet_sleeve = 3.9179E7, rho_outlet_sleeve = 3343.8, Cp_inlet_sleeve = 979.59, k_inlet_sleeve = 136.38, sigma_inlet_sleeve = 3.3787E7, rho_inlet_sleeve = 3130) (degC), Point: 210Temperature (Cp_Al = 864.22, k_Al = 181.19, sigma_Al = 4.0873E7, rho_Al = 2658.5, Cp_inlet = 925.3, k_inlet = 148.15, sigma_inlet = 4.4248E7, rho_inlet = 3033.4, Cp_outlet = 915.5, k_outlet = 181.33, sigma_outlet = 3.6387E7, rho_outlet = 2829.1, Cp_outlet_sleeve = 885.27, k_outlet_sleeve = 135.72, sigma_outlet_sleeve = 3.9179E7, rho_outlet_sleeve = 3343.8, Cp_inlet_sleeve = 979.59, k_inlet_sleeve = 136.38, sigma_inlet_sleeve = 3.3787E7, rho_inlet_sleeve = 3130) (degC), Point: 213Temperature (Cp_Al = 864.22, k_Al = 181.19, sigma_Al = 4.0873E7, rho_Al = 2658.5, Cp_inlet = 925.3, k_inlet = 148.15, sigma_inlet = 4.4248E7, rho_inlet = 3033.4, Cp_outlet = 915.5, k_outlet = 181.33, sigma_outlet = 3.6387E7, rho_outlet = 2829.1, Cp_outlet_sleeve = 885.27, k_outlet_sleeve = 135.72, sigma_outlet_sleeve = 3.9179E7, rho_outlet_sleeve = 3343.8, Cp_inlet_sleeve = 979.59, k_inlet_sleeve = 136.38, sigma_inlet_sleeve = 3.3787E7, rho_inlet_sleeve = 3130) (degC), Point: 215Temperature (Cp_Al = 864.22, k_Al = 181.19, sigma_Al = 4.0873E7, rho_Al = 2658.5, Cp_inlet = 925.3, k_inlet = 148.15, sigma_inlet = 4.4248E7, rho_inlet = 3033.4, Cp_outlet = 915.5, k_outlet = 181.33, sigma_outlet = 3.6387E7, rho_outlet = 2829.1, Cp_outlet_sleeve = 885.27, k_outlet_sleeve = 135.72, sigma_outlet_sleeve = 3.9179E7, rho_outlet_sleeve = 3343.8, Cp_inlet_sleeve = 979.59, k_inlet_sleeve = 136.38, sigma_inlet_sleeve = 3.3787E7, rho_inlet_sleeve = 3130) (degC), Point: 229Temperature (Cp_Al = 864.22, k_Al = 181.19, sigma_Al = 4.0873E7, rho_Al = 2658.5, Cp_inlet = 925.3, k_inlet = 148.15, sigma_inlet = 4.4248E7, rho_inlet = 3033.4, Cp_outlet = 915.5, k_outlet = 181.33, sigma_outlet = 3.6387E7, rho_outlet = 2829.1, Cp_outlet_sleeve = 885.27, k_outlet_sleeve = 135.72, sigma_outlet_sleeve = 3.9179E7, rho_outlet_sleeve = 3343.8, Cp_inlet_sleeve = 979.59, k_inlet_sleeve = 136.38, sigma_inlet_sleeve = 3.3787E7, rho_inlet_sleeve = 3130) (degC), Point: 232Temperature (Cp_Al = 864.22, k_Al = 181.19, sigma_Al = 4.0873E7, rho_Al = 2658.5, Cp_inlet = 925.3, k_inlet = 148.15, sigma_inlet = 4.4248E7, rho_inlet = 3033.4, Cp_outlet = 915.5, k_outlet = 181.33, sigma_outlet = 3.6387E7, rho_outlet = 2829.1, Cp_outlet_sleeve = 885.27, k_outlet_sleeve = 135.72, sigma_outlet_sleeve = 3.9179E7, rho_outlet_sleeve = 3343.8, Cp_inlet_sleeve = 979.59, k_inlet_sleeve = 136.38, sigma_inlet_sleeve = 3.3787E7, rho_inlet_sleeve = 3130) (degC), Point: 239Temperature (Cp_Al = 864.22, k_Al = 181.19, sigma_Al = 4.0873E7, rho_Al = 2658.5, Cp_inlet = 925.3, k_inlet = 148.15, sigma_inlet = 4.4248E7, rho_inlet = 3033.4, Cp_outlet = 915.5, k_outlet = 181.33, sigma_outlet = 3.6387E7, rho_outlet = 2829.1, Cp_outlet_sleeve = 885.27, k_outlet_sleeve = 135.72, sigma_outlet_sleeve = 3.9179E7, rho_outlet_sleeve = 3343.8, Cp_inlet_sleeve = 979.59, k_inlet_sleeve = 136.38, sigma_inlet_sleeve = 3.3787E7, rho_inlet_sleeve = 3130) (degC), Point: 252Temperature (Cp_Al = 864.22, k_Al = 181.19, sigma_Al = 4.0873E7, rho_Al = 2658.5, Cp_inlet = 925.3, k_inlet = 148.15, sigma_inlet = 4.4248E7, rho_inlet = 3033.4, Cp_outlet = 915.5, k_outlet = 181.33, sigma_outlet = 3.6387E7, rho_outlet = 2829.1, Cp_outlet_sleeve = 885.27, k_outlet_sleeve = 135.72, sigma_outlet_sleeve = 3.9179E7, rho_outlet_sleeve = 3343.8, Cp_inlet_sleeve = 979.59, k_inlet_sleeve = 136.38, sigma_inlet_sleeve = 3.3787E7, rho_inlet_sleeve = 3130) (degC), Point: 261Temperature (Cp_Al = 864.22, k_Al = 181.19, sigma_Al = 4.0873E7, rho_Al = 2658.5, Cp_inlet = 925.3, k_inlet = 148.15, sigma_inlet = 4.4248E7, rho_inlet = 3033.4, Cp_outlet = 915.5, k_outlet = 181.33, sigma_outlet = 3.6387E7, rho_outlet = 2829.1, Cp_outlet_sleeve = 885.27, k_outlet_sleeve = 135.72, sigma_outlet_sleeve = 3.9179E7, rho_outlet_sleeve = 3343.8, Cp_inlet_sleeve = 979.59, k_inlet_sleeve = 136.38, sigma_inlet_sleeve = 3.3787E7, rho_inlet_sleeve = 3130) (degC), Point: 270Temperature (Cp_Al = 864.22, k_Al = 181.19, sigma_Al = 4.0873E7, rho_Al = 2658.5, Cp_inlet = 925.3, k_inlet = 148.15, sigma_inlet = 4.4248E7, rho_inlet = 3033.4, Cp_outlet = 915.5, k_outlet = 181.33, sigma_outlet = 3.6387E7, rho_outlet = 2829.1, Cp_outlet_sleeve = 885.27, k_outlet_sleeve = 135.72, sigma_outlet_sleeve = 3.9179E7, rho_outlet_sleeve = 3343.8, Cp_inlet_sleeve = 979.59, k_inlet_sleeve = 136.38, sigma_inlet_sleeve = 3.3787E7, rho_inlet_sleeve = 3130) (degC), Point: 273Temperature (Cp_Al = 864.22, k_Al = 181.19, sigma_Al = 4.0873E7, rho_Al = 2658.5, Cp_inlet = 925.3, k_inlet = 148.15, sigma_inlet = 4.4248E7, rho_inlet = 3033.4, Cp_outlet = 915.5, k_outlet = 181.33, sigma_outlet = 3.6387E7, rho_outlet = 2829.1, Cp_outlet_sleeve = 885.27, k_outlet_sleeve = 135.72, sigma_outlet_sleeve = 3.9179E7, rho_outlet_sleeve = 3343.8, Cp_inlet_sleeve = 979.59, k_inlet_sleeve = 136.38, sigma_inlet_sleeve = 3.3787E7, rho_inlet_sleeve = 3130) (degC), Point: 275
0                        21.495382044318205       21.008916835360992       21.13086705286821        21.007706526319623       21.011100140659437       21.108105279335746       21.0073090730221         21.018420606224936       21.001195743021356       21.024472313963884       21.001041813546237       21.00056766554627        21.009623386828366       21.000098306235486       21.00554631092166        21.016119481794192       21.000049083527244       21.01145654610798        21.000645793200533       21.00026077541014        21.00174820248077        21.000137767244723       21.000198823291782       21.00731606860768        21.11862713654972        21.01069146106994        21.399865646676403       21.007610393833545       21.14364429390008        21.011697038828288       21.551458898166572
3                        279.7801475841693        239.2767508664566        247.20612112084268       242.15114525032334       236.6195398181943        246.28895603854096       243.53667082635081       234.41306651086933       230.32936478912427       238.72388175942905       239.7577124661243        230.83193082067766       229.09788326797872       218.3171525718913        222.6921391570371        206.69732152701732       202.1189903687041        211.3268348909893        212.74543985775864       206.75924512801447       205.76360434984434       198.68424058624356       201.2265956105275        245.818002195065         249.0414325027225        238.52621852394338       274.5773431584089        244.35175175869904       249.74442449419803       239.53455312229994       285.70851478375175
6                        401.2585852076686        359.387944984006         369.7532229210833        364.9906281451017        362.3921732034214        376.2967192469886        374.29259220137124       362.1381358091286        355.9858436151293        368.6553219654743        370.43982515678965       361.46435570714596       358.98202259284074       343.9137935288934        350.35078073447573       327.3833700240806        321.3830271511423        333.15370289404325       334.8860203125546        328.5233173423004        327.2577600851148        317.74153447172887       321.6614921062144        376.38368540859983       378.8421117403915        364.0057568358069        402.1409489095837        365.3100944122418        370.4044808723179        357.5769399464775        405.20558625598346
9                        479.21031920439555       436.39047416294477       448.9652103688718        444.703955022051         439.25502480182104       456.46021879615125       455.2679600942864        440.252206124086         432.760961729492         448.76250475525546       451.3613897339344        442.3854958255491        439.09148017560324       420.69039672940244       428.4569236263113        404.64602334039864       397.6582162817758        411.742693781963         413.9982032990289        407.6775074652719        405.9188214957229        394.1802155210952        399.05814331378974       457.25940316221124       458.8881868998491        440.69382056587483       480.17492652015255       443.83446777926974       448.41240974066216       433.23051493665287       481.87089926345595
12                       533.0825942100823        489.57737219226647       504.00211757696877       500.2485442263777        490.0017058729246        509.6561920134221        509.1578684600131        491.83222415505065       483.4568186602471        501.9284488198856        505.2226705172194        496.24027819135654       492.2514536156749        471.37677353215406       480.01962454218267       458.0839101075783        450.3837946885775        466.3943985887299        469.17538859731974       462.9129787830524        460.6438984278126        447.0300822599203        452.601728813038         511.0928182738709        512.01214503673          491.32852560701633       531.6974361620483        498.6902526713502        502.73936898325326       485.5876911911487        534.9595335622432
15                       574.1248100924953        530.0968153856663        546.0501207945167        542.7509043493019        527.4449579841079        548.9270622632293        548.97991088025          529.8600897050522        520.8648341874817        541.1790638217326        545.0255176464275        536.0419557913515        531.501025425546         508.7811448038833        518.0376712207868        498.85012384624963       490.6081034604522        508.2022787744751        511.4514949357956        505.25078528307483       502.51954999910936       487.3478321580835        493.44992952012933       550.881117385167         551.2367359669734        528.6969651197212        569.6877591426811        540.7938138759292        544.3662844762592        525.5874332660983        575.5168963830596
18                       607.3495079949821        562.9058239625018        580.1461788442307        577.2491084835078        557.0034173154089        579.8811800101716        580.3725432761483        559.8457868600404        550.3983675701718        572.1192573367618        576.4050309252322        567.4229425965957        562.4426275439592        538.3141643352149        548.0179294201669        531.8899684048113        523.2182316278745        542.1408904087237        545.8034541952193        539.6720128772909        536.5288588883084        520.0409839518173        526.5654591855202        582.2536383443314        582.1606669973702        558.2044958218535        599.648531269955         575.0639248270369        578.2127343916479        558.065058477139         608.437135960755
21                       635.4200614034773        590.6358448477013        608.9787984488212        606.4386119332911        581.4672811521085        605.4363394840033        606.2822514017224        584.6313461473286        574.844538359449         597.6648902743232        602.3058176616798        593.3263745627169        587.9907279609793        562.7613183328461        572.8004667684346        559.8340163737039        550.811263747289         570.8684230948603        574.8970632553865        568.8371715831902        565.3269205652014        547.7095115526416        554.58010585246          608.1519278432168        607.6962207731848        582.6334991582036        624.4173775522581        604.1302843119485        606.9023434825646        585.5841873222952        636.3177916400762
24                       660.170238412019         615.0986148197446        634.4007088355756        632.1778716757663        602.7549060296365        627.6069080560695        628.7468692669124        606.1717904823355        596.1192642787172        619.8287886151415        624.764225550464         615.7879371884933        610.1575564335855        584.0378075114099        594.3393253852333        584.4941235032827        575.1759039454797        596.2174087227648        600.5710438366771        594.5804632921007        590.7431183877886        572.1427073804           579.3052398767456        630.6104245834492        629.8538808691225        603.8967115484617        645.9463725299506        629.8065449387001        632.2434760438573        609.9096422573131        660.9472724508777
27                       682.6761593329129        637.3572430273783        657.5010103254867        655.5604039959393        622.0027725673939        647.5921773071148        648.9823272707679        625.626081647924         615.3574365158038        639.8092579930526        644.9952399067495        636.0222793829387        630.1411158880691        603.278133687512         613.7928965579947        606.9333042367085        597.3614211073657        619.264982234885         623.9072803945184        617.9813486239365        613.8528734551188        594.3900756833222        601.8035365883222        650.8430040442299        649.8305197864727        623.1270248901066        665.3926271118927        653.1600628855972        655.2991051011483        632.0762098187889        683.3745124229312
