% Model:              brazing.mph
% Version:            COMSOL 5.3.0.223
% Date:               Oct 24 2018, 06:23
% Table:              Table 3 - 
% Time (s)               Temperature (Cp_Al = 942.67, k_Al = 157.79, sigma_Al = 3.5303E7, rho_Al = 2576.3, Cp_inlet = 898.73, k_inlet = 145.59, sigma_inlet = 3.6785E7, rho_inlet = 2739.1, Cp_outlet = 827.61, k_outlet = 171.05, sigma_outlet = 3.4111E7, rho_outlet = 2689.6, Cp_outlet_sleeve = 888.79, k_outlet_sleeve = 158.74, sigma_outlet_sleeve = 3.6799E7, rho_outlet_sleeve = 2439.7, Cp_inlet_sleeve = 955.97, k_inlet_sleeve = 160.15, sigma_inlet_sleeve = 3.7887E7, rho_inlet_sleeve = 2681.7) (degC), Point: 55Temperature (Cp_Al = 942.67, k_Al = 157.79, sigma_Al = 3.5303E7, rho_Al = 2576.3, Cp_inlet = 898.73, k_inlet = 145.59, sigma_inlet = 3.6785E7, rho_inlet = 2739.1, Cp_outlet = 827.61, k_outlet = 171.05, sigma_outlet = 3.4111E7, rho_outlet = 2689.6, Cp_outlet_sleeve = 888.79, k_outlet_sleeve = 158.74, sigma_outlet_sleeve = 3.6799E7, rho_outlet_sleeve = 2439.7, Cp_inlet_sleeve = 955.97, k_inlet_sleeve = 160.15, sigma_inlet_sleeve = 3.7887E7, rho_inlet_sleeve = 2681.7) (degC), Point: 56Temperature (Cp_Al = 942.67, k_Al = 157.79, sigma_Al = 3.5303E7, rho_Al = 2576.3, Cp_inlet = 898.73, k_inlet = 145.59, sigma_inlet = 3.6785E7, rho_inlet = 2739.1, Cp_outlet = 827.61, k_outlet = 171.05, sigma_outlet = 3.4111E7, rho_outlet = 2689.6, Cp_outlet_sleeve = 888.79, k_outlet_sleeve = 158.74, sigma_outlet_sleeve = 3.6799E7, rho_outlet_sleeve = 2439.7, Cp_inlet_sleeve = 955.97, k_inlet_sleeve = 160.15, sigma_inlet_sleeve = 3.7887E7, rho_inlet_sleeve = 2681.7) (degC), Point: 60Temperature (Cp_Al = 942.67, k_Al = 157.79, sigma_Al = 3.5303E7, rho_Al = 2576.3, Cp_inlet = 898.73, k_inlet = 145.59, sigma_inlet = 3.6785E7, rho_inlet = 2739.1, Cp_outlet = 827.61, k_outlet = 171.05, sigma_outlet = 3.4111E7, rho_outlet = 2689.6, Cp_outlet_sleeve = 888.79, k_outlet_sleeve = 158.74, sigma_outlet_sleeve = 3.6799E7, rho_outlet_sleeve = 2439.7, Cp_inlet_sleeve = 955.97, k_inlet_sleeve = 160.15, sigma_inlet_sleeve = 3.7887E7, rho_inlet_sleeve = 2681.7) (degC), Point: 69Temperature (Cp_Al = 942.67, k_Al = 157.79, sigma_Al = 3.5303E7, rho_Al = 2576.3, Cp_inlet = 898.73, k_inlet = 145.59, sigma_inlet = 3.6785E7, rho_inlet = 2739.1, Cp_outlet = 827.61, k_outlet = 171.05, sigma_outlet = 3.4111E7, rho_outlet = 2689.6, Cp_outlet_sleeve = 888.79, k_outlet_sleeve = 158.74, sigma_outlet_sleeve = 3.6799E7, rho_outlet_sleeve = 2439.7, Cp_inlet_sleeve = 955.97, k_inlet_sleeve = 160.15, sigma_inlet_sleeve = 3.7887E7, rho_inlet_sleeve = 2681.7) (degC), Point: 90Temperature (Cp_Al = 942.67, k_Al = 157.79, sigma_Al = 3.5303E7, rho_Al = 2576.3, Cp_inlet = 898.73, k_inlet = 145.59, sigma_inlet = 3.6785E7, rho_inlet = 2739.1, Cp_outlet = 827.61, k_outlet = 171.05, sigma_outlet = 3.4111E7, rho_outlet = 2689.6, Cp_outlet_sleeve = 888.79, k_outlet_sleeve = 158.74, sigma_outlet_sleeve = 3.6799E7, rho_outlet_sleeve = 2439.7, Cp_inlet_sleeve = 955.97, k_inlet_sleeve = 160.15, sigma_inlet_sleeve = 3.7887E7, rho_inlet_sleeve = 2681.7) (degC), Point: 98Temperature (Cp_Al = 942.67, k_Al = 157.79, sigma_Al = 3.5303E7, rho_Al = 2576.3, Cp_inlet = 898.73, k_inlet = 145.59, sigma_inlet = 3.6785E7, rho_inlet = 2739.1, Cp_outlet = 827.61, k_outlet = 171.05, sigma_outlet = 3.4111E7, rho_outlet = 2689.6, Cp_outlet_sleeve = 888.79, k_outlet_sleeve = 158.74, sigma_outlet_sleeve = 3.6799E7, rho_outlet_sleeve = 2439.7, Cp_inlet_sleeve = 955.97, k_inlet_sleeve = 160.15, sigma_inlet_sleeve = 3.7887E7, rho_inlet_sleeve = 2681.7) (degC), Point: 102Temperature (Cp_Al = 942.67, k_Al = 157.79, sigma_Al = 3.5303E7, rho_Al = 2576.3, Cp_inlet = 898.73, k_inlet = 145.59, sigma_inlet = 3.6785E7, rho_inlet = 2739.1, Cp_outlet = 827.61, k_outlet = 171.05, sigma_outlet = 3.4111E7, rho_outlet = 2689.6, Cp_outlet_sleeve = 888.79, k_outlet_sleeve = 158.74, sigma_outlet_sleeve = 3.6799E7, rho_outlet_sleeve = 2439.7, Cp_inlet_sleeve = 955.97, k_inlet_sleeve = 160.15, sigma_inlet_sleeve = 3.7887E7, rho_inlet_sleeve = 2681.7) (degC), Point: 127Temperature (Cp_Al = 942.67, k_Al = 157.79, sigma_Al = 3.5303E7, rho_Al = 2576.3, Cp_inlet = 898.73, k_inlet = 145.59, sigma_inlet = 3.6785E7, rho_inlet = 2739.1, Cp_outlet = 827.61, k_outlet = 171.05, sigma_outlet = 3.4111E7, rho_outlet = 2689.6, Cp_outlet_sleeve = 888.79, k_outlet_sleeve = 158.74, sigma_outlet_sleeve = 3.6799E7, rho_outlet_sleeve = 2439.7, Cp_inlet_sleeve = 955.97, k_inlet_sleeve = 160.15, sigma_inlet_sleeve = 3.7887E7, rho_inlet_sleeve = 2681.7) (degC), Point: 128Temperature (Cp_Al = 942.67, k_Al = 157.79, sigma_Al = 3.5303E7, rho_Al = 2576.3, Cp_inlet = 898.73, k_inlet = 145.59, sigma_inlet = 3.6785E7, rho_inlet = 2739.1, Cp_outlet = 827.61, k_outlet = 171.05, sigma_outlet = 3.4111E7, rho_outlet = 2689.6, Cp_outlet_sleeve = 888.79, k_outlet_sleeve = 158.74, sigma_outlet_sleeve = 3.6799E7, rho_outlet_sleeve = 2439.7, Cp_inlet_sleeve = 955.97, k_inlet_sleeve = 160.15, sigma_inlet_sleeve = 3.7887E7, rho_inlet_sleeve = 2681.7) (degC), Point: 134Temperature (Cp_Al = 942.67, k_Al = 157.79, sigma_Al = 3.5303E7, rho_Al = 2576.3, Cp_inlet = 898.73, k_inlet = 145.59, sigma_inlet = 3.6785E7, rho_inlet = 2739.1, Cp_outlet = 827.61, k_outlet = 171.05, sigma_outlet = 3.4111E7, rho_outlet = 2689.6, Cp_outlet_sleeve = 888.79, k_outlet_sleeve = 158.74, sigma_outlet_sleeve = 3.6799E7, rho_outlet_sleeve = 2439.7, Cp_inlet_sleeve = 955.97, k_inlet_sleeve = 160.15, sigma_inlet_sleeve = 3.7887E7, rho_inlet_sleeve = 2681.7) (degC), Point: 138Temperature (Cp_Al = 942.67, k_Al = 157.79, sigma_Al = 3.5303E7, rho_Al = 2576.3, Cp_inlet = 898.73, k_inlet = 145.59, sigma_inlet = 3.6785E7, rho_inlet = 2739.1, Cp_outlet = 827.61, k_outlet = 171.05, sigma_outlet = 3.4111E7, rho_outlet = 2689.6, Cp_outlet_sleeve = 888.79, k_outlet_sleeve = 158.74, sigma_outlet_sleeve = 3.6799E7, rho_outlet_sleeve = 2439.7, Cp_inlet_sleeve = 955.97, k_inlet_sleeve = 160.15, sigma_inlet_sleeve = 3.7887E7, rho_inlet_sleeve = 2681.7) (degC), Point: 151Temperature (Cp_Al = 942.67, k_Al = 157.79, sigma_Al = 3.5303E7, rho_Al = 2576.3, Cp_inlet = 898.73, k_inlet = 145.59, sigma_inlet = 3.6785E7, rho_inlet = 2739.1, Cp_outlet = 827.61, k_outlet = 171.05, sigma_outlet = 3.4111E7, rho_outlet = 2689.6, Cp_outlet_sleeve = 888.79, k_outlet_sleeve = 158.74, sigma_outlet_sleeve = 3.6799E7, rho_outlet_sleeve = 2439.7, Cp_inlet_sleeve = 955.97, k_inlet_sleeve = 160.15, sigma_inlet_sleeve = 3.7887E7, rho_inlet_sleeve = 2681.7) (degC), Point: 154Temperature (Cp_Al = 942.67, k_Al = 157.79, sigma_Al = 3.5303E7, rho_Al = 2576.3, Cp_inlet = 898.73, k_inlet = 145.59, sigma_inlet = 3.6785E7, rho_inlet = 2739.1, Cp_outlet = 827.61, k_outlet = 171.05, sigma_outlet = 3.4111E7, rho_outlet = 2689.6, Cp_outlet_sleeve = 888.79, k_outlet_sleeve = 158.74, sigma_outlet_sleeve = 3.6799E7, rho_outlet_sleeve = 2439.7, Cp_inlet_sleeve = 955.97, k_inlet_sleeve = 160.15, sigma_inlet_sleeve = 3.7887E7, rho_inlet_sleeve = 2681.7) (degC), Point: 159Temperature (Cp_Al = 942.67, k_Al = 157.79, sigma_Al = 3.5303E7, rho_Al = 2576.3, Cp_inlet = 898.73, k_inlet = 145.59, sigma_inlet = 3.6785E7, rho_inlet = 2739.1, Cp_outlet = 827.61, k_outlet = 171.05, sigma_outlet = 3.4111E7, rho_outlet = 2689.6, Cp_outlet_sleeve = 888.79, k_outlet_sleeve = 158.74, sigma_outlet_sleeve = 3.6799E7, rho_outlet_sleeve = 2439.7, Cp_inlet_sleeve = 955.97, k_inlet_sleeve = 160.15, sigma_inlet_sleeve = 3.7887E7, rho_inlet_sleeve = 2681.7) (degC), Point: 163Temperature (Cp_Al = 942.67, k_Al = 157.79, sigma_Al = 3.5303E7, rho_Al = 2576.3, Cp_inlet = 898.73, k_inlet = 145.59, sigma_inlet = 3.6785E7, rho_inlet = 2739.1, Cp_outlet = 827.61, k_outlet = 171.05, sigma_outlet = 3.4111E7, rho_outlet = 2689.6, Cp_outlet_sleeve = 888.79, k_outlet_sleeve = 158.74, sigma_outlet_sleeve = 3.6799E7, rho_outlet_sleeve = 2439.7, Cp_inlet_sleeve = 955.97, k_inlet_sleeve = 160.15, sigma_inlet_sleeve = 3.7887E7, rho_inlet_sleeve = 2681.7) (degC), Point: 167Temperature (Cp_Al = 942.67, k_Al = 157.79, sigma_Al = 3.5303E7, rho_Al = 2576.3, Cp_inlet = 898.73, k_inlet = 145.59, sigma_inlet = 3.6785E7, rho_inlet = 2739.1, Cp_outlet = 827.61, k_outlet = 171.05, sigma_outlet = 3.4111E7, rho_outlet = 2689.6, Cp_outlet_sleeve = 888.79, k_outlet_sleeve = 158.74, sigma_outlet_sleeve = 3.6799E7, rho_outlet_sleeve = 2439.7, Cp_inlet_sleeve = 955.97, k_inlet_sleeve = 160.15, sigma_inlet_sleeve = 3.7887E7, rho_inlet_sleeve = 2681.7) (degC), Point: 168Temperature (Cp_Al = 942.67, k_Al = 157.79, sigma_Al = 3.5303E7, rho_Al = 2576.3, Cp_inlet = 898.73, k_inlet = 145.59, sigma_inlet = 3.6785E7, rho_inlet = 2739.1, Cp_outlet = 827.61, k_outlet = 171.05, sigma_outlet = 3.4111E7, rho_outlet = 2689.6, Cp_outlet_sleeve = 888.79, k_outlet_sleeve = 158.74, sigma_outlet_sleeve = 3.6799E7, rho_outlet_sleeve = 2439.7, Cp_inlet_sleeve = 955.97, k_inlet_sleeve = 160.15, sigma_inlet_sleeve = 3.7887E7, rho_inlet_sleeve = 2681.7) (degC), Point: 172Temperature (Cp_Al = 942.67, k_Al = 157.79, sigma_Al = 3.5303E7, rho_Al = 2576.3, Cp_inlet = 898.73, k_inlet = 145.59, sigma_inlet = 3.6785E7, rho_inlet = 2739.1, Cp_outlet = 827.61, k_outlet = 171.05, sigma_outlet = 3.4111E7, rho_outlet = 2689.6, Cp_outlet_sleeve = 888.79, k_outlet_sleeve = 158.74, sigma_outlet_sleeve = 3.6799E7, rho_outlet_sleeve = 2439.7, Cp_inlet_sleeve = 955.97, k_inlet_sleeve = 160.15, sigma_inlet_sleeve = 3.7887E7, rho_inlet_sleeve = 2681.7) (degC), Point: 181Temperature (Cp_Al = 942.67, k_Al = 157.79, sigma_Al = 3.5303E7, rho_Al = 2576.3, Cp_inlet = 898.73, k_inlet = 145.59, sigma_inlet = 3.6785E7, rho_inlet = 2739.1, Cp_outlet = 827.61, k_outlet = 171.05, sigma_outlet = 3.4111E7, rho_outlet = 2689.6, Cp_outlet_sleeve = 888.79, k_outlet_sleeve = 158.74, sigma_outlet_sleeve = 3.6799E7, rho_outlet_sleeve = 2439.7, Cp_inlet_sleeve = 955.97, k_inlet_sleeve = 160.15, sigma_inlet_sleeve = 3.7887E7, rho_inlet_sleeve = 2681.7) (degC), Point: 201Temperature (Cp_Al = 942.67, k_Al = 157.79, sigma_Al = 3.5303E7, rho_Al = 2576.3, Cp_inlet = 898.73, k_inlet = 145.59, sigma_inlet = 3.6785E7, rho_inlet = 2739.1, Cp_outlet = 827.61, k_outlet = 171.05, sigma_outlet = 3.4111E7, rho_outlet = 2689.6, Cp_outlet_sleeve = 888.79, k_outlet_sleeve = 158.74, sigma_outlet_sleeve = 3.6799E7, rho_outlet_sleeve = 2439.7, Cp_inlet_sleeve = 955.97, k_inlet_sleeve = 160.15, sigma_inlet_sleeve = 3.7887E7, rho_inlet_sleeve = 2681.7) (degC), Point: 210Temperature (Cp_Al = 942.67, k_Al = 157.79, sigma_Al = 3.5303E7, rho_Al = 2576.3, Cp_inlet = 898.73, k_inlet = 145.59, sigma_inlet = 3.6785E7, rho_inlet = 2739.1, Cp_outlet = 827.61, k_outlet = 171.05, sigma_outlet = 3.4111E7, rho_outlet = 2689.6, Cp_outlet_sleeve = 888.79, k_outlet_sleeve = 158.74, sigma_outlet_sleeve = 3.6799E7, rho_outlet_sleeve = 2439.7, Cp_inlet_sleeve = 955.97, k_inlet_sleeve = 160.15, sigma_inlet_sleeve = 3.7887E7, rho_inlet_sleeve = 2681.7) (degC), Point: 213Temperature (Cp_Al = 942.67, k_Al = 157.79, sigma_Al = 3.5303E7, rho_Al = 2576.3, Cp_inlet = 898.73, k_inlet = 145.59, sigma_inlet = 3.6785E7, rho_inlet = 2739.1, Cp_outlet = 827.61, k_outlet = 171.05, sigma_outlet = 3.4111E7, rho_outlet = 2689.6, Cp_outlet_sleeve = 888.79, k_outlet_sleeve = 158.74, sigma_outlet_sleeve = 3.6799E7, rho_outlet_sleeve = 2439.7, Cp_inlet_sleeve = 955.97, k_inlet_sleeve = 160.15, sigma_inlet_sleeve = 3.7887E7, rho_inlet_sleeve = 2681.7) (degC), Point: 215Temperature (Cp_Al = 942.67, k_Al = 157.79, sigma_Al = 3.5303E7, rho_Al = 2576.3, Cp_inlet = 898.73, k_inlet = 145.59, sigma_inlet = 3.6785E7, rho_inlet = 2739.1, Cp_outlet = 827.61, k_outlet = 171.05, sigma_outlet = 3.4111E7, rho_outlet = 2689.6, Cp_outlet_sleeve = 888.79, k_outlet_sleeve = 158.74, sigma_outlet_sleeve = 3.6799E7, rho_outlet_sleeve = 2439.7, Cp_inlet_sleeve = 955.97, k_inlet_sleeve = 160.15, sigma_inlet_sleeve = 3.7887E7, rho_inlet_sleeve = 2681.7) (degC), Point: 229Temperature (Cp_Al = 942.67, k_Al = 157.79, sigma_Al = 3.5303E7, rho_Al = 2576.3, Cp_inlet = 898.73, k_inlet = 145.59, sigma_inlet = 3.6785E7, rho_inlet = 2739.1, Cp_outlet = 827.61, k_outlet = 171.05, sigma_outlet = 3.4111E7, rho_outlet = 2689.6, Cp_outlet_sleeve = 888.79, k_outlet_sleeve = 158.74, sigma_outlet_sleeve = 3.6799E7, rho_outlet_sleeve = 2439.7, Cp_inlet_sleeve = 955.97, k_inlet_sleeve = 160.15, sigma_inlet_sleeve = 3.7887E7, rho_inlet_sleeve = 2681.7) (degC), Point: 232Temperature (Cp_Al = 942.67, k_Al = 157.79, sigma_Al = 3.5303E7, rho_Al = 2576.3, Cp_inlet = 898.73, k_inlet = 145.59, sigma_inlet = 3.6785E7, rho_inlet = 2739.1, Cp_outlet = 827.61, k_outlet = 171.05, sigma_outlet = 3.4111E7, rho_outlet = 2689.6, Cp_outlet_sleeve = 888.79, k_outlet_sleeve = 158.74, sigma_outlet_sleeve = 3.6799E7, rho_outlet_sleeve = 2439.7, Cp_inlet_sleeve = 955.97, k_inlet_sleeve = 160.15, sigma_inlet_sleeve = 3.7887E7, rho_inlet_sleeve = 2681.7) (degC), Point: 239Temperature (Cp_Al = 942.67, k_Al = 157.79, sigma_Al = 3.5303E7, rho_Al = 2576.3, Cp_inlet = 898.73, k_inlet = 145.59, sigma_inlet = 3.6785E7, rho_inlet = 2739.1, Cp_outlet = 827.61, k_outlet = 171.05, sigma_outlet = 3.4111E7, rho_outlet = 2689.6, Cp_outlet_sleeve = 888.79, k_outlet_sleeve = 158.74, sigma_outlet_sleeve = 3.6799E7, rho_outlet_sleeve = 2439.7, Cp_inlet_sleeve = 955.97, k_inlet_sleeve = 160.15, sigma_inlet_sleeve = 3.7887E7, rho_inlet_sleeve = 2681.7) (degC), Point: 252Temperature (Cp_Al = 942.67, k_Al = 157.79, sigma_Al = 3.5303E7, rho_Al = 2576.3, Cp_inlet = 898.73, k_inlet = 145.59, sigma_inlet = 3.6785E7, rho_inlet = 2739.1, Cp_outlet = 827.61, k_outlet = 171.05, sigma_outlet = 3.4111E7, rho_outlet = 2689.6, Cp_outlet_sleeve = 888.79, k_outlet_sleeve = 158.74, sigma_outlet_sleeve = 3.6799E7, rho_outlet_sleeve = 2439.7, Cp_inlet_sleeve = 955.97, k_inlet_sleeve = 160.15, sigma_inlet_sleeve = 3.7887E7, rho_inlet_sleeve = 2681.7) (degC), Point: 261Temperature (Cp_Al = 942.67, k_Al = 157.79, sigma_Al = 3.5303E7, rho_Al = 2576.3, Cp_inlet = 898.73, k_inlet = 145.59, sigma_inlet = 3.6785E7, rho_inlet = 2739.1, Cp_outlet = 827.61, k_outlet = 171.05, sigma_outlet = 3.4111E7, rho_outlet = 2689.6, Cp_outlet_sleeve = 888.79, k_outlet_sleeve = 158.74, sigma_outlet_sleeve = 3.6799E7, rho_outlet_sleeve = 2439.7, Cp_inlet_sleeve = 955.97, k_inlet_sleeve = 160.15, sigma_inlet_sleeve = 3.7887E7, rho_inlet_sleeve = 2681.7) (degC), Point: 270Temperature (Cp_Al = 942.67, k_Al = 157.79, sigma_Al = 3.5303E7, rho_Al = 2576.3, Cp_inlet = 898.73, k_inlet = 145.59, sigma_inlet = 3.6785E7, rho_inlet = 2739.1, Cp_outlet = 827.61, k_outlet = 171.05, sigma_outlet = 3.4111E7, rho_outlet = 2689.6, Cp_outlet_sleeve = 888.79, k_outlet_sleeve = 158.74, sigma_outlet_sleeve = 3.6799E7, rho_outlet_sleeve = 2439.7, Cp_inlet_sleeve = 955.97, k_inlet_sleeve = 160.15, sigma_inlet_sleeve = 3.7887E7, rho_inlet_sleeve = 2681.7) (degC), Point: 273Temperature (Cp_Al = 942.67, k_Al = 157.79, sigma_Al = 3.5303E7, rho_Al = 2576.3, Cp_inlet = 898.73, k_inlet = 145.59, sigma_inlet = 3.6785E7, rho_inlet = 2739.1, Cp_outlet = 827.61, k_outlet = 171.05, sigma_outlet = 3.4111E7, rho_outlet = 2689.6, Cp_outlet_sleeve = 888.79, k_outlet_sleeve = 158.74, sigma_outlet_sleeve = 3.6799E7, rho_outlet_sleeve = 2439.7, Cp_inlet_sleeve = 955.97, k_inlet_sleeve = 160.15, sigma_inlet_sleeve = 3.7887E7, rho_inlet_sleeve = 2681.7) (degC), Point: 275
0                        21.642194034648753       21.012374307300547       21.132482142260983       21.00869475413407        21.012939338357512       21.108474575790353       21.008229901051152       21.023292729058824       21.00137037550462        21.024624442251195       21.001162812484324       21.00061364656085        21.00955014047173        21.000105724215757       21.00693569941336        21.021042438176778       21.0000547708496         21.011587933908118       21.000724478076222       21.000289910191043       21.00176890532032        21.00017007847981        21.0002627640676         21.008222643328907       21.11901266584232        21.01243692624871        21.496678047685634       21.008602052793094       21.145440883822573       21.015683421919675       21.71441150617551
3                        306.1956210666816        271.04810850089007       280.2666529769157        275.4751043767542        253.4621465494813        265.5914465293466        263.69155702488683       252.41815658827193       247.9242889169028        258.11715199165906       259.91065061218967       251.2221370903526        248.81334809585815       236.83527077956677       241.47132979294508       239.5664693975541        235.01575699638124       244.05498149436642       245.55197063150092       239.32088458716555       238.3323531768474        231.627086410375         234.37738479812458       265.8230221006976        268.1549352147347        255.09793492091956       287.5043528529152        277.0146982158734        282.095865425332         270.4038176905102        310.54896837346996
6                        428.8664220676842        392.233196177306         405.0356414706529        400.90760231772913       375.8291488606777        392.928479853133         392.0990743608804        376.6291230540277        370.1272462975652        385.34223180947697       388.21089979667204       379.51315755583164       376.0338388022278        359.02705626023055       365.6623451706581        361.07448120908225       354.9701325659619        367.7695060185281        369.9643897090086        363.65861116207645       362.02950419656963       351.7343403043694        355.98430685816527       394.0178112427309        395.2533163017838        377.1237265433732        411.5556311683712        400.2238208855633        404.6239852706649        389.1148599691671        430.8529455091557
9                        500.9174130387995        463.38224723757503       478.8330911520304        475.4191313404931        445.98932750864117       466.4633665341139        466.57436618719646       447.85455368159865       440.19212740443356       458.81763140425153       462.62976865238613       453.9233523252602        449.50189195329745       429.0803667767723        436.867283955287         432.331037887046         425.28045755895516       440.8527556112019        443.7906987731893        437.5875251607332        435.2442739409099        422.2644773700132        427.4316855065938        468.381677040957         468.6534536202107        447.08029838338916       482.68206412890356       473.44335411066834       477.09907413667304       458.7521281844631        501.4682537935879
12                       550.25711072649          512.1073798180025        529.5363603473086        526.7233948827899        492.75138752988914       515.5690484491463        516.4014042548927        495.2973859612971        486.89431758336616       507.8874750942207        512.4230191034053        503.7119293467657        498.5671663164402        475.7739610276566        484.2949705552827        481.2064307407645        473.511770840709         491.1476333176331        494.7080830101313        488.5804679789676        485.62576057747754       470.62239774313696       476.4179644227104        518.1442933921904        517.6765133851387        493.7129557282815        530.0610131275737        524.035388154547         527.0570587955086        506.58134276165435       549.9664338936
15                       587.9636882088391        549.3555936324259        568.3433448256569        566.0336311171255        527.6322991751456        552.1531648195166        553.5368529712758        530.6494893328972        521.7341911184407        544.4475664524234        549.5359426161027        540.8247552939904        535.1269810729227        510.61057769226          519.6388518900078        518.6156866297976        510.44200365676465       529.6982308733313        533.7784687284011        527.7319336657522        524.260267726533         507.6535299223068        513.9191595455078        555.2406133629556        554.2074618572909        528.5077376482456        565.3716130212997        562.9385027009931        565.4257617052751        543.2703523744558        587.1542714464201
18                       618.2561164401955        579.2926430178886        599.5471664503922        597.6659313600018        554.9768901572537        580.764902426902         582.5770529936402        558.3291504098181        549.0504506850247        573.0431962039896        578.561136663925         569.8520545172604        563.7243928232187        537.9264168983427        547.3142063520515        548.7133242792447        540.1694528984428        560.7380910365844        565.2598421904812        559.2961667426287        555.381630426478         537.4674077682663        544.0980048711807        584.2576086933124        582.7850247307861        555.7946412510199        593.0241349728185        594.3467535035413        596.3773456564936        572.857575814974         617.1273663646381
21                       644.1827576189811        604.9287739959692        626.2502221172592        624.7397603460012        577.9524326877131        604.7307711905729        606.8879615486942        581.558302575927         572.0056048899781        596.9978072830629        602.8616171764021        594.1556286632187        587.6817393107299        560.8826693250473        570.5412726967232        574.5038176563093        565.6583322924964        587.3291245104657        592.2322012991453        586.3484824267147        582.0497065376934        563.0333202415217        569.9620594473517        608.5545550287078        606.7281139034001        578.7300318137069        616.2348816578873        621.2944653817673        622.9296394645505        598.2635472544255        642.8473894219474
24                       667.326092235034         627.8269297202104        650.065028615353         648.8779276019076        598.2475775518157        625.833774992533         628.2784418097957        602.05575011673          592.2856105308281        618.0927024223632        624.2446213768625        615.5421253689947        608.7797761471788        581.164574744242         591.037915817413         597.5472197142299        588.447966069657         611.0633301741224        616.2984353358505        610.4888600966227        605.854759918415         585.892027016723         593.0719161128201        629.936749741257         627.8155521173443        598.9964158565263        636.7195000150864        645.3608946468902        646.651565542502         621.0039162304514        665.8514113278031
27                       688.5459697173984        648.8365069324624        671.8691699551933        670.9646296589694        616.8168204794272        645.0847177529389        647.7756198339447        620.7931219564182        610.84332508804          637.3376678424352        643.736308059417         635.0373710706225        628.0279715110146        599.7245432955644        609.7751884743444        618.6908942002402        609.3745387454265        632.8070195921201        638.3318774079015        632.5894388746478        627.662402086281         606.8803436039288        614.275185001867         649.4292271508065        647.0556444542674        617.544540128011         655.4476971979096        667.4068698241858        668.3969942804847        641.90140794005          686.9739113663493
