% Model:              brazing.mph
% Version:            COMSOL 5.3.0.223
% Date:               Oct 24 2018, 03:09
% Table:              Table 3 - 
% Time (s)               Temperature (Cp_Al = 811.78, k_Al = 132.86, sigma_Al = 5.0603E7, rho_Al = 2642.7, Cp_inlet = 824.56, k_inlet = 173.58, sigma_inlet = 2.9167E7, rho_inlet = 2262.3, Cp_outlet = 932.73, k_outlet = 135.26, sigma_outlet = 4.4743E7, rho_outlet = 2264.8, Cp_outlet_sleeve = 681.84, k_outlet_sleeve = 161.08, sigma_outlet_sleeve = 3.3463E7, rho_outlet_sleeve = 2843.3, Cp_inlet_sleeve = 875.05, k_inlet_sleeve = 135.01, sigma_inlet_sleeve = 4.9487E7, rho_inlet_sleeve = 2659.5) (degC), Point: 55Temperature (Cp_Al = 811.78, k_Al = 132.86, sigma_Al = 5.0603E7, rho_Al = 2642.7, Cp_inlet = 824.56, k_inlet = 173.58, sigma_inlet = 2.9167E7, rho_inlet = 2262.3, Cp_outlet = 932.73, k_outlet = 135.26, sigma_outlet = 4.4743E7, rho_outlet = 2264.8, Cp_outlet_sleeve = 681.84, k_outlet_sleeve = 161.08, sigma_outlet_sleeve = 3.3463E7, rho_outlet_sleeve = 2843.3, Cp_inlet_sleeve = 875.05, k_inlet_sleeve = 135.01, sigma_inlet_sleeve = 4.9487E7, rho_inlet_sleeve = 2659.5) (degC), Point: 56Temperature (Cp_Al = 811.78, k_Al = 132.86, sigma_Al = 5.0603E7, rho_Al = 2642.7, Cp_inlet = 824.56, k_inlet = 173.58, sigma_inlet = 2.9167E7, rho_inlet = 2262.3, Cp_outlet = 932.73, k_outlet = 135.26, sigma_outlet = 4.4743E7, rho_outlet = 2264.8, Cp_outlet_sleeve = 681.84, k_outlet_sleeve = 161.08, sigma_outlet_sleeve = 3.3463E7, rho_outlet_sleeve = 2843.3, Cp_inlet_sleeve = 875.05, k_inlet_sleeve = 135.01, sigma_inlet_sleeve = 4.9487E7, rho_inlet_sleeve = 2659.5) (degC), Point: 60Temperature (Cp_Al = 811.78, k_Al = 132.86, sigma_Al = 5.0603E7, rho_Al = 2642.7, Cp_inlet = 824.56, k_inlet = 173.58, sigma_inlet = 2.9167E7, rho_inlet = 2262.3, Cp_outlet = 932.73, k_outlet = 135.26, sigma_outlet = 4.4743E7, rho_outlet = 2264.8, Cp_outlet_sleeve = 681.84, k_outlet_sleeve = 161.08, sigma_outlet_sleeve = 3.3463E7, rho_outlet_sleeve = 2843.3, Cp_inlet_sleeve = 875.05, k_inlet_sleeve = 135.01, sigma_inlet_sleeve = 4.9487E7, rho_inlet_sleeve = 2659.5) (degC), Point: 69Temperature (Cp_Al = 811.78, k_Al = 132.86, sigma_Al = 5.0603E7, rho_Al = 2642.7, Cp_inlet = 824.56, k_inlet = 173.58, sigma_inlet = 2.9167E7, rho_inlet = 2262.3, Cp_outlet = 932.73, k_outlet = 135.26, sigma_outlet = 4.4743E7, rho_outlet = 2264.8, Cp_outlet_sleeve = 681.84, k_outlet_sleeve = 161.08, sigma_outlet_sleeve = 3.3463E7, rho_outlet_sleeve = 2843.3, Cp_inlet_sleeve = 875.05, k_inlet_sleeve = 135.01, sigma_inlet_sleeve = 4.9487E7, rho_inlet_sleeve = 2659.5) (degC), Point: 90Temperature (Cp_Al = 811.78, k_Al = 132.86, sigma_Al = 5.0603E7, rho_Al = 2642.7, Cp_inlet = 824.56, k_inlet = 173.58, sigma_inlet = 2.9167E7, rho_inlet = 2262.3, Cp_outlet = 932.73, k_outlet = 135.26, sigma_outlet = 4.4743E7, rho_outlet = 2264.8, Cp_outlet_sleeve = 681.84, k_outlet_sleeve = 161.08, sigma_outlet_sleeve = 3.3463E7, rho_outlet_sleeve = 2843.3, Cp_inlet_sleeve = 875.05, k_inlet_sleeve = 135.01, sigma_inlet_sleeve = 4.9487E7, rho_inlet_sleeve = 2659.5) (degC), Point: 98Temperature (Cp_Al = 811.78, k_Al = 132.86, sigma_Al = 5.0603E7, rho_Al = 2642.7, Cp_inlet = 824.56, k_inlet = 173.58, sigma_inlet = 2.9167E7, rho_inlet = 2262.3, Cp_outlet = 932.73, k_outlet = 135.26, sigma_outlet = 4.4743E7, rho_outlet = 2264.8, Cp_outlet_sleeve = 681.84, k_outlet_sleeve = 161.08, sigma_outlet_sleeve = 3.3463E7, rho_outlet_sleeve = 2843.3, Cp_inlet_sleeve = 875.05, k_inlet_sleeve = 135.01, sigma_inlet_sleeve = 4.9487E7, rho_inlet_sleeve = 2659.5) (degC), Point: 102Temperature (Cp_Al = 811.78, k_Al = 132.86, sigma_Al = 5.0603E7, rho_Al = 2642.7, Cp_inlet = 824.56, k_inlet = 173.58, sigma_inlet = 2.9167E7, rho_inlet = 2262.3, Cp_outlet = 932.73, k_outlet = 135.26, sigma_outlet = 4.4743E7, rho_outlet = 2264.8, Cp_outlet_sleeve = 681.84, k_outlet_sleeve = 161.08, sigma_outlet_sleeve = 3.3463E7, rho_outlet_sleeve = 2843.3, Cp_inlet_sleeve = 875.05, k_inlet_sleeve = 135.01, sigma_inlet_sleeve = 4.9487E7, rho_inlet_sleeve = 2659.5) (degC), Point: 127Temperature (Cp_Al = 811.78, k_Al = 132.86, sigma_Al = 5.0603E7, rho_Al = 2642.7, Cp_inlet = 824.56, k_inlet = 173.58, sigma_inlet = 2.9167E7, rho_inlet = 2262.3, Cp_outlet = 932.73, k_outlet = 135.26, sigma_outlet = 4.4743E7, rho_outlet = 2264.8, Cp_outlet_sleeve = 681.84, k_outlet_sleeve = 161.08, sigma_outlet_sleeve = 3.3463E7, rho_outlet_sleeve = 2843.3, Cp_inlet_sleeve = 875.05, k_inlet_sleeve = 135.01, sigma_inlet_sleeve = 4.9487E7, rho_inlet_sleeve = 2659.5) (degC), Point: 128Temperature (Cp_Al = 811.78, k_Al = 132.86, sigma_Al = 5.0603E7, rho_Al = 2642.7, Cp_inlet = 824.56, k_inlet = 173.58, sigma_inlet = 2.9167E7, rho_inlet = 2262.3, Cp_outlet = 932.73, k_outlet = 135.26, sigma_outlet = 4.4743E7, rho_outlet = 2264.8, Cp_outlet_sleeve = 681.84, k_outlet_sleeve = 161.08, sigma_outlet_sleeve = 3.3463E7, rho_outlet_sleeve = 2843.3, Cp_inlet_sleeve = 875.05, k_inlet_sleeve = 135.01, sigma_inlet_sleeve = 4.9487E7, rho_inlet_sleeve = 2659.5) (degC), Point: 134Temperature (Cp_Al = 811.78, k_Al = 132.86, sigma_Al = 5.0603E7, rho_Al = 2642.7, Cp_inlet = 824.56, k_inlet = 173.58, sigma_inlet = 2.9167E7, rho_inlet = 2262.3, Cp_outlet = 932.73, k_outlet = 135.26, sigma_outlet = 4.4743E7, rho_outlet = 2264.8, Cp_outlet_sleeve = 681.84, k_outlet_sleeve = 161.08, sigma_outlet_sleeve = 3.3463E7, rho_outlet_sleeve = 2843.3, Cp_inlet_sleeve = 875.05, k_inlet_sleeve = 135.01, sigma_inlet_sleeve = 4.9487E7, rho_inlet_sleeve = 2659.5) (degC), Point: 138Temperature (Cp_Al = 811.78, k_Al = 132.86, sigma_Al = 5.0603E7, rho_Al = 2642.7, Cp_inlet = 824.56, k_inlet = 173.58, sigma_inlet = 2.9167E7, rho_inlet = 2262.3, Cp_outlet = 932.73, k_outlet = 135.26, sigma_outlet = 4.4743E7, rho_outlet = 2264.8, Cp_outlet_sleeve = 681.84, k_outlet_sleeve = 161.08, sigma_outlet_sleeve = 3.3463E7, rho_outlet_sleeve = 2843.3, Cp_inlet_sleeve = 875.05, k_inlet_sleeve = 135.01, sigma_inlet_sleeve = 4.9487E7, rho_inlet_sleeve = 2659.5) (degC), Point: 151Temperature (Cp_Al = 811.78, k_Al = 132.86, sigma_Al = 5.0603E7, rho_Al = 2642.7, Cp_inlet = 824.56, k_inlet = 173.58, sigma_inlet = 2.9167E7, rho_inlet = 2262.3, Cp_outlet = 932.73, k_outlet = 135.26, sigma_outlet = 4.4743E7, rho_outlet = 2264.8, Cp_outlet_sleeve = 681.84, k_outlet_sleeve = 161.08, sigma_outlet_sleeve = 3.3463E7, rho_outlet_sleeve = 2843.3, Cp_inlet_sleeve = 875.05, k_inlet_sleeve = 135.01, sigma_inlet_sleeve = 4.9487E7, rho_inlet_sleeve = 2659.5) (degC), Point: 154Temperature (Cp_Al = 811.78, k_Al = 132.86, sigma_Al = 5.0603E7, rho_Al = 2642.7, Cp_inlet = 824.56, k_inlet = 173.58, sigma_inlet = 2.9167E7, rho_inlet = 2262.3, Cp_outlet = 932.73, k_outlet = 135.26, sigma_outlet = 4.4743E7, rho_outlet = 2264.8, Cp_outlet_sleeve = 681.84, k_outlet_sleeve = 161.08, sigma_outlet_sleeve = 3.3463E7, rho_outlet_sleeve = 2843.3, Cp_inlet_sleeve = 875.05, k_inlet_sleeve = 135.01, sigma_inlet_sleeve = 4.9487E7, rho_inlet_sleeve = 2659.5) (degC), Point: 159Temperature (Cp_Al = 811.78, k_Al = 132.86, sigma_Al = 5.0603E7, rho_Al = 2642.7, Cp_inlet = 824.56, k_inlet = 173.58, sigma_inlet = 2.9167E7, rho_inlet = 2262.3, Cp_outlet = 932.73, k_outlet = 135.26, sigma_outlet = 4.4743E7, rho_outlet = 2264.8, Cp_outlet_sleeve = 681.84, k_outlet_sleeve = 161.08, sigma_outlet_sleeve = 3.3463E7, rho_outlet_sleeve = 2843.3, Cp_inlet_sleeve = 875.05, k_inlet_sleeve = 135.01, sigma_inlet_sleeve = 4.9487E7, rho_inlet_sleeve = 2659.5) (degC), Point: 163Temperature (Cp_Al = 811.78, k_Al = 132.86, sigma_Al = 5.0603E7, rho_Al = 2642.7, Cp_inlet = 824.56, k_inlet = 173.58, sigma_inlet = 2.9167E7, rho_inlet = 2262.3, Cp_outlet = 932.73, k_outlet = 135.26, sigma_outlet = 4.4743E7, rho_outlet = 2264.8, Cp_outlet_sleeve = 681.84, k_outlet_sleeve = 161.08, sigma_outlet_sleeve = 3.3463E7, rho_outlet_sleeve = 2843.3, Cp_inlet_sleeve = 875.05, k_inlet_sleeve = 135.01, sigma_inlet_sleeve = 4.9487E7, rho_inlet_sleeve = 2659.5) (degC), Point: 167Temperature (Cp_Al = 811.78, k_Al = 132.86, sigma_Al = 5.0603E7, rho_Al = 2642.7, Cp_inlet = 824.56, k_inlet = 173.58, sigma_inlet = 2.9167E7, rho_inlet = 2262.3, Cp_outlet = 932.73, k_outlet = 135.26, sigma_outlet = 4.4743E7, rho_outlet = 2264.8, Cp_outlet_sleeve = 681.84, k_outlet_sleeve = 161.08, sigma_outlet_sleeve = 3.3463E7, rho_outlet_sleeve = 2843.3, Cp_inlet_sleeve = 875.05, k_inlet_sleeve = 135.01, sigma_inlet_sleeve = 4.9487E7, rho_inlet_sleeve = 2659.5) (degC), Point: 168Temperature (Cp_Al = 811.78, k_Al = 132.86, sigma_Al = 5.0603E7, rho_Al = 2642.7, Cp_inlet = 824.56, k_inlet = 173.58, sigma_inlet = 2.9167E7, rho_inlet = 2262.3, Cp_outlet = 932.73, k_outlet = 135.26, sigma_outlet = 4.4743E7, rho_outlet = 2264.8, Cp_outlet_sleeve = 681.84, k_outlet_sleeve = 161.08, sigma_outlet_sleeve = 3.3463E7, rho_outlet_sleeve = 2843.3, Cp_inlet_sleeve = 875.05, k_inlet_sleeve = 135.01, sigma_inlet_sleeve = 4.9487E7, rho_inlet_sleeve = 2659.5) (degC), Point: 172Temperature (Cp_Al = 811.78, k_Al = 132.86, sigma_Al = 5.0603E7, rho_Al = 2642.7, Cp_inlet = 824.56, k_inlet = 173.58, sigma_inlet = 2.9167E7, rho_inlet = 2262.3, Cp_outlet = 932.73, k_outlet = 135.26, sigma_outlet = 4.4743E7, rho_outlet = 2264.8, Cp_outlet_sleeve = 681.84, k_outlet_sleeve = 161.08, sigma_outlet_sleeve = 3.3463E7, rho_outlet_sleeve = 2843.3, Cp_inlet_sleeve = 875.05, k_inlet_sleeve = 135.01, sigma_inlet_sleeve = 4.9487E7, rho_inlet_sleeve = 2659.5) (degC), Point: 181Temperature (Cp_Al = 811.78, k_Al = 132.86, sigma_Al = 5.0603E7, rho_Al = 2642.7, Cp_inlet = 824.56, k_inlet = 173.58, sigma_inlet = 2.9167E7, rho_inlet = 2262.3, Cp_outlet = 932.73, k_outlet = 135.26, sigma_outlet = 4.4743E7, rho_outlet = 2264.8, Cp_outlet_sleeve = 681.84, k_outlet_sleeve = 161.08, sigma_outlet_sleeve = 3.3463E7, rho_outlet_sleeve = 2843.3, Cp_inlet_sleeve = 875.05, k_inlet_sleeve = 135.01, sigma_inlet_sleeve = 4.9487E7, rho_inlet_sleeve = 2659.5) (degC), Point: 201Temperature (Cp_Al = 811.78, k_Al = 132.86, sigma_Al = 5.0603E7, rho_Al = 2642.7, Cp_inlet = 824.56, k_inlet = 173.58, sigma_inlet = 2.9167E7, rho_inlet = 2262.3, Cp_outlet = 932.73, k_outlet = 135.26, sigma_outlet = 4.4743E7, rho_outlet = 2264.8, Cp_outlet_sleeve = 681.84, k_outlet_sleeve = 161.08, sigma_outlet_sleeve = 3.3463E7, rho_outlet_sleeve = 2843.3, Cp_inlet_sleeve = 875.05, k_inlet_sleeve = 135.01, sigma_inlet_sleeve = 4.9487E7, rho_inlet_sleeve = 2659.5) (degC), Point: 210Temperature (Cp_Al = 811.78, k_Al = 132.86, sigma_Al = 5.0603E7, rho_Al = 2642.7, Cp_inlet = 824.56, k_inlet = 173.58, sigma_inlet = 2.9167E7, rho_inlet = 2262.3, Cp_outlet = 932.73, k_outlet = 135.26, sigma_outlet = 4.4743E7, rho_outlet = 2264.8, Cp_outlet_sleeve = 681.84, k_outlet_sleeve = 161.08, sigma_outlet_sleeve = 3.3463E7, rho_outlet_sleeve = 2843.3, Cp_inlet_sleeve = 875.05, k_inlet_sleeve = 135.01, sigma_inlet_sleeve = 4.9487E7, rho_inlet_sleeve = 2659.5) (degC), Point: 213Temperature (Cp_Al = 811.78, k_Al = 132.86, sigma_Al = 5.0603E7, rho_Al = 2642.7, Cp_inlet = 824.56, k_inlet = 173.58, sigma_inlet = 2.9167E7, rho_inlet = 2262.3, Cp_outlet = 932.73, k_outlet = 135.26, sigma_outlet = 4.4743E7, rho_outlet = 2264.8, Cp_outlet_sleeve = 681.84, k_outlet_sleeve = 161.08, sigma_outlet_sleeve = 3.3463E7, rho_outlet_sleeve = 2843.3, Cp_inlet_sleeve = 875.05, k_inlet_sleeve = 135.01, sigma_inlet_sleeve = 4.9487E7, rho_inlet_sleeve = 2659.5) (degC), Point: 215Temperature (Cp_Al = 811.78, k_Al = 132.86, sigma_Al = 5.0603E7, rho_Al = 2642.7, Cp_inlet = 824.56, k_inlet = 173.58, sigma_inlet = 2.9167E7, rho_inlet = 2262.3, Cp_outlet = 932.73, k_outlet = 135.26, sigma_outlet = 4.4743E7, rho_outlet = 2264.8, Cp_outlet_sleeve = 681.84, k_outlet_sleeve = 161.08, sigma_outlet_sleeve = 3.3463E7, rho_outlet_sleeve = 2843.3, Cp_inlet_sleeve = 875.05, k_inlet_sleeve = 135.01, sigma_inlet_sleeve = 4.9487E7, rho_inlet_sleeve = 2659.5) (degC), Point: 229Temperature (Cp_Al = 811.78, k_Al = 132.86, sigma_Al = 5.0603E7, rho_Al = 2642.7, Cp_inlet = 824.56, k_inlet = 173.58, sigma_inlet = 2.9167E7, rho_inlet = 2262.3, Cp_outlet = 932.73, k_outlet = 135.26, sigma_outlet = 4.4743E7, rho_outlet = 2264.8, Cp_outlet_sleeve = 681.84, k_outlet_sleeve = 161.08, sigma_outlet_sleeve = 3.3463E7, rho_outlet_sleeve = 2843.3, Cp_inlet_sleeve = 875.05, k_inlet_sleeve = 135.01, sigma_inlet_sleeve = 4.9487E7, rho_inlet_sleeve = 2659.5) (degC), Point: 232Temperature (Cp_Al = 811.78, k_Al = 132.86, sigma_Al = 5.0603E7, rho_Al = 2642.7, Cp_inlet = 824.56, k_inlet = 173.58, sigma_inlet = 2.9167E7, rho_inlet = 2262.3, Cp_outlet = 932.73, k_outlet = 135.26, sigma_outlet = 4.4743E7, rho_outlet = 2264.8, Cp_outlet_sleeve = 681.84, k_outlet_sleeve = 161.08, sigma_outlet_sleeve = 3.3463E7, rho_outlet_sleeve = 2843.3, Cp_inlet_sleeve = 875.05, k_inlet_sleeve = 135.01, sigma_inlet_sleeve = 4.9487E7, rho_inlet_sleeve = 2659.5) (degC), Point: 239Temperature (Cp_Al = 811.78, k_Al = 132.86, sigma_Al = 5.0603E7, rho_Al = 2642.7, Cp_inlet = 824.56, k_inlet = 173.58, sigma_inlet = 2.9167E7, rho_inlet = 2262.3, Cp_outlet = 932.73, k_outlet = 135.26, sigma_outlet = 4.4743E7, rho_outlet = 2264.8, Cp_outlet_sleeve = 681.84, k_outlet_sleeve = 161.08, sigma_outlet_sleeve = 3.3463E7, rho_outlet_sleeve = 2843.3, Cp_inlet_sleeve = 875.05, k_inlet_sleeve = 135.01, sigma_inlet_sleeve = 4.9487E7, rho_inlet_sleeve = 2659.5) (degC), Point: 252Temperature (Cp_Al = 811.78, k_Al = 132.86, sigma_Al = 5.0603E7, rho_Al = 2642.7, Cp_inlet = 824.56, k_inlet = 173.58, sigma_inlet = 2.9167E7, rho_inlet = 2262.3, Cp_outlet = 932.73, k_outlet = 135.26, sigma_outlet = 4.4743E7, rho_outlet = 2264.8, Cp_outlet_sleeve = 681.84, k_outlet_sleeve = 161.08, sigma_outlet_sleeve = 3.3463E7, rho_outlet_sleeve = 2843.3, Cp_inlet_sleeve = 875.05, k_inlet_sleeve = 135.01, sigma_inlet_sleeve = 4.9487E7, rho_inlet_sleeve = 2659.5) (degC), Point: 261Temperature (Cp_Al = 811.78, k_Al = 132.86, sigma_Al = 5.0603E7, rho_Al = 2642.7, Cp_inlet = 824.56, k_inlet = 173.58, sigma_inlet = 2.9167E7, rho_inlet = 2262.3, Cp_outlet = 932.73, k_outlet = 135.26, sigma_outlet = 4.4743E7, rho_outlet = 2264.8, Cp_outlet_sleeve = 681.84, k_outlet_sleeve = 161.08, sigma_outlet_sleeve = 3.3463E7, rho_outlet_sleeve = 2843.3, Cp_inlet_sleeve = 875.05, k_inlet_sleeve = 135.01, sigma_inlet_sleeve = 4.9487E7, rho_inlet_sleeve = 2659.5) (degC), Point: 270Temperature (Cp_Al = 811.78, k_Al = 132.86, sigma_Al = 5.0603E7, rho_Al = 2642.7, Cp_inlet = 824.56, k_inlet = 173.58, sigma_inlet = 2.9167E7, rho_inlet = 2262.3, Cp_outlet = 932.73, k_outlet = 135.26, sigma_outlet = 4.4743E7, rho_outlet = 2264.8, Cp_outlet_sleeve = 681.84, k_outlet_sleeve = 161.08, sigma_outlet_sleeve = 3.3463E7, rho_outlet_sleeve = 2843.3, Cp_inlet_sleeve = 875.05, k_inlet_sleeve = 135.01, sigma_inlet_sleeve = 4.9487E7, rho_inlet_sleeve = 2659.5) (degC), Point: 273Temperature (Cp_Al = 811.78, k_Al = 132.86, sigma_Al = 5.0603E7, rho_Al = 2642.7, Cp_inlet = 824.56, k_inlet = 173.58, sigma_inlet = 2.9167E7, rho_inlet = 2262.3, Cp_outlet = 932.73, k_outlet = 135.26, sigma_outlet = 4.4743E7, rho_outlet = 2264.8, Cp_outlet_sleeve = 681.84, k_outlet_sleeve = 161.08, sigma_outlet_sleeve = 3.3463E7, rho_outlet_sleeve = 2843.3, Cp_inlet_sleeve = 875.05, k_inlet_sleeve = 135.01, sigma_inlet_sleeve = 4.9487E7, rho_inlet_sleeve = 2659.5) (degC), Point: 275
0                        21.678630211887253       21.0144194111744         21.130696793696927       21.00852911890786        21.013771448711566       21.107993609935875       21.009820407375514       21.02986413920746        21.001381456624756       21.02460815986666        21.001358791452503       21.000689433806997       21.009427755879074       21.000108702492355       21.008749715468184       21.022390792884778       21.00005630082103        21.011489187787504       21.000739827597044       21.000308167557648       21.001779315183626       21.00018483577668        21.000281021555736       21.009798758356226       21.11842995078183        21.013146782637307       21.617020842712748       21.008379495580584       21.14340478146596        21.017654624650106       21.754851870291247
3                        322.620363241714         288.63684251602945       297.7834773176953        293.07791505007447       278.66190426549485       292.8193594328278        291.63725681366293       278.4173598861855        272.52981777181253       285.5064460433115        288.13421884656066       280.3354077009616        277.06628332977414       262.33471900958693       268.01557635719985       253.54609371498816       248.94870168290095       257.5504421600466        258.816429599456         252.6273474306821        251.97888284628516       245.87940854888575       248.68918750103217       293.5943050168611        295.229160685588         280.29671538538685       320.05079643659394       294.7290672670823        299.65220737006985       287.73326467223467       326.7126813061817
6                        450.43714080461507       414.8694423253503        428.09661875894994       424.1975110139671        411.3916915691781        430.1443858189358        429.8375128816233        413.0693037703131        405.11270412817294       422.73891167303907       426.2484205864339        418.4358006093503        414.2884887888538        394.90142196871125       402.6411631559505        379.94652594766114       373.68489954136044       386.5744473861397        388.6878684211579        382.5563107224542        381.12865761824116       370.94758674066975       375.355365809049         431.61572969843803       432.3506073464324        412.71510028711725       454.5557588768788        423.3004965907088        427.3995698575593        411.14232194231715       451.8273858814498
9                        524.8208169567309        488.3305483202204        504.3715485465831        501.25040601309865       487.5131155632681        509.42104891162273       509.9257791876561        490.2956140168311        481.14566624432416       501.9639647214452        506.289301117287         498.4689335346468        493.50601501178903       470.92068751093495       479.8444260612316        453.38578583448793       446.1524633127508        461.98783955860586       464.9085479263166        458.9154260337135        456.7147039494472        443.68995901385927       449.03602905619186       511.6086430628209        511.5094616234803        488.6445368318034        531.6883863240187        498.79924535003624       502.09475447605644       482.8312219564351        524.5212837711612
12                       576.0252056914168        538.9184692400239        556.9835758134698        554.4839144982004        539.2444941566827        563.4263262848078        564.5825888556348        542.7571508715945        532.8196266041782        555.9368012498821        560.9165687980333        553.0946052942522        547.4767856826921        522.5871956246626        532.2915313786101        504.03179123445784       496.14956279862326       514.098790307359         517.6624927821503        511.74516319111274       508.9167458306796        493.82841008976936       499.805029265327         566.2106879601876        565.4422630414333        540.2525677768848        584.089996321551         551.131644122397         553.7769881262509        532.3393058681888        574.7040400530656
15                       614.2695547625672        576.7237214266163        596.3106871985673        594.3102378208131        577.5917223954866        603.4911570576132        605.1742914296917        581.6229884015627        571.1285249556502        595.9807066875105        601.4893730600321        593.6690130354083        587.5216089649474        560.892560020106         571.1484077961369        541.9268622239676        533.5834619222392        553.1175441752627        557.1966586165898        551.3505470730465        548.0117945161459        531.3603559661157        537.7882685417986        606.7710611945687        605.4617581236424        578.5187779829132        622.9167856057521        590.4339537074536        592.551942717568         569.4731507222609        612.3195042677337
18                       644.8583237887749        606.9811782143246        627.767406909176         626.1794822185059        608.1650585701253        635.426953406598         637.5482752158935        612.5892816977774        601.6754656179052        627.9026485965663        633.8509485729612        626.0334565617928        619.445671392683         591.4378580254137        602.1086536379275        572.2858844989765        563.5954968791813        584.3750940264953        588.8794392373128        583.1037531219463        579.3397608250046        561.4500749000168        568.2195733317582        639.1271866428059        637.3683455608423        609.037025243417         653.8565630672178        621.9938201472658        623.6731612710018        599.2985428031275        642.5082729289556
21                       670.7998711701705        632.6593645671569        654.4293885162834        653.1907062087909        634.0773208198831        662.4614415765258        664.9546445682445        638.815794664109         627.5689990604645        654.9277114614681        661.2489422252855        653.4347063006425        646.473266311826         617.3307085372378        628.3307989298929        598.0696593346846        589.1043805642375        610.9029191100183        615.7667265081506        610.058362590744         605.9325391526439        587.0241393169892        594.0654605928993        666.5235555314841        664.383467372713         634.9106169929573        680.0643888389721        648.8200091738987        650.1267026202322        624.6893350855582        668.1871559776098
24                       693.8326475923432        655.4737804099587        678.07661279005          677.139317289851         657.0812148652349        686.4138831097603        689.2268488337766        662.0809904738948        650.5591995742217        678.8735534233841        685.5153218290783        677.704287378746         670.4216466167865        640.3206835573061        651.5926224361766        620.9892607961009        611.7968678922945        634.4556870221602        639.6292441658401        633.9830988256521        629.5442639169352        609.7727542986584        617.0393037614052        690.7903279556175        688.3226422120648        657.8864630690146        703.3159042319726        672.655602115527         673.6404190136114        647.3052612743849        691.0408775940188
27                       714.9108251732913        676.3662580230682        699.6870063575992        699.0125403106481        678.1134013892399        708.2576896303768        711.3469279168665        683.3347984582397        671.5811285529121        700.712628063038         707.6312500810715        699.8231867513651        692.2631032307593        661.3426230294134        672.8437252963658        641.9833775714152        632.5984815311106        655.9971197618231        661.4404239180251        655.850590080154         651.13856016082          630.6232711277719        638.081054822343         712.9076867350938        710.1571243813746        678.897783294457         724.5594107151256        694.4588976184954        695.1631822146544        668.0563685577235        711.9931718774243
