% Model:              brazing.mph
% Version:            COMSOL 5.3.0.223
% Date:               Oct 24 2018, 03:36
% Table:              Table 3 - 
% Time (s)               Temperature (Cp_Al = 849.4, k_Al = 144.03, sigma_Al = 4.0555E7, rho_Al = 2646.1, Cp_inlet = 931.96, k_inlet = 159.28, sigma_inlet = 3.3383E7, rho_inlet = 2377.9, Cp_outlet = 842.7, k_outlet = 148.21, sigma_outlet = 3.8026E7, rho_outlet = 2576, Cp_outlet_sleeve = 833.07, k_outlet_sleeve = 164.97, sigma_outlet_sleeve = 3.4257E7, rho_outlet_sleeve = 2506.8, Cp_inlet_sleeve = 907.23, k_inlet_sleeve = 157.34, sigma_inlet_sleeve = 4.2077E7, rho_inlet_sleeve = 2524.3) (degC), Point: 55Temperature (Cp_Al = 849.4, k_Al = 144.03, sigma_Al = 4.0555E7, rho_Al = 2646.1, Cp_inlet = 931.96, k_inlet = 159.28, sigma_inlet = 3.3383E7, rho_inlet = 2377.9, Cp_outlet = 842.7, k_outlet = 148.21, sigma_outlet = 3.8026E7, rho_outlet = 2576, Cp_outlet_sleeve = 833.07, k_outlet_sleeve = 164.97, sigma_outlet_sleeve = 3.4257E7, rho_outlet_sleeve = 2506.8, Cp_inlet_sleeve = 907.23, k_inlet_sleeve = 157.34, sigma_inlet_sleeve = 4.2077E7, rho_inlet_sleeve = 2524.3) (degC), Point: 56Temperature (Cp_Al = 849.4, k_Al = 144.03, sigma_Al = 4.0555E7, rho_Al = 2646.1, Cp_inlet = 931.96, k_inlet = 159.28, sigma_inlet = 3.3383E7, rho_inlet = 2377.9, Cp_outlet = 842.7, k_outlet = 148.21, sigma_outlet = 3.8026E7, rho_outlet = 2576, Cp_outlet_sleeve = 833.07, k_outlet_sleeve = 164.97, sigma_outlet_sleeve = 3.4257E7, rho_outlet_sleeve = 2506.8, Cp_inlet_sleeve = 907.23, k_inlet_sleeve = 157.34, sigma_inlet_sleeve = 4.2077E7, rho_inlet_sleeve = 2524.3) (degC), Point: 60Temperature (Cp_Al = 849.4, k_Al = 144.03, sigma_Al = 4.0555E7, rho_Al = 2646.1, Cp_inlet = 931.96, k_inlet = 159.28, sigma_inlet = 3.3383E7, rho_inlet = 2377.9, Cp_outlet = 842.7, k_outlet = 148.21, sigma_outlet = 3.8026E7, rho_outlet = 2576, Cp_outlet_sleeve = 833.07, k_outlet_sleeve = 164.97, sigma_outlet_sleeve = 3.4257E7, rho_outlet_sleeve = 2506.8, Cp_inlet_sleeve = 907.23, k_inlet_sleeve = 157.34, sigma_inlet_sleeve = 4.2077E7, rho_inlet_sleeve = 2524.3) (degC), Point: 69Temperature (Cp_Al = 849.4, k_Al = 144.03, sigma_Al = 4.0555E7, rho_Al = 2646.1, Cp_inlet = 931.96, k_inlet = 159.28, sigma_inlet = 3.3383E7, rho_inlet = 2377.9, Cp_outlet = 842.7, k_outlet = 148.21, sigma_outlet = 3.8026E7, rho_outlet = 2576, Cp_outlet_sleeve = 833.07, k_outlet_sleeve = 164.97, sigma_outlet_sleeve = 3.4257E7, rho_outlet_sleeve = 2506.8, Cp_inlet_sleeve = 907.23, k_inlet_sleeve = 157.34, sigma_inlet_sleeve = 4.2077E7, rho_inlet_sleeve = 2524.3) (degC), Point: 90Temperature (Cp_Al = 849.4, k_Al = 144.03, sigma_Al = 4.0555E7, rho_Al = 2646.1, Cp_inlet = 931.96, k_inlet = 159.28, sigma_inlet = 3.3383E7, rho_inlet = 2377.9, Cp_outlet = 842.7, k_outlet = 148.21, sigma_outlet = 3.8026E7, rho_outlet = 2576, Cp_outlet_sleeve = 833.07, k_outlet_sleeve = 164.97, sigma_outlet_sleeve = 3.4257E7, rho_outlet_sleeve = 2506.8, Cp_inlet_sleeve = 907.23, k_inlet_sleeve = 157.34, sigma_inlet_sleeve = 4.2077E7, rho_inlet_sleeve = 2524.3) (degC), Point: 98Temperature (Cp_Al = 849.4, k_Al = 144.03, sigma_Al = 4.0555E7, rho_Al = 2646.1, Cp_inlet = 931.96, k_inlet = 159.28, sigma_inlet = 3.3383E7, rho_inlet = 2377.9, Cp_outlet = 842.7, k_outlet = 148.21, sigma_outlet = 3.8026E7, rho_outlet = 2576, Cp_outlet_sleeve = 833.07, k_outlet_sleeve = 164.97, sigma_outlet_sleeve = 3.4257E7, rho_outlet_sleeve = 2506.8, Cp_inlet_sleeve = 907.23, k_inlet_sleeve = 157.34, sigma_inlet_sleeve = 4.2077E7, rho_inlet_sleeve = 2524.3) (degC), Point: 102Temperature (Cp_Al = 849.4, k_Al = 144.03, sigma_Al = 4.0555E7, rho_Al = 2646.1, Cp_inlet = 931.96, k_inlet = 159.28, sigma_inlet = 3.3383E7, rho_inlet = 2377.9, Cp_outlet = 842.7, k_outlet = 148.21, sigma_outlet = 3.8026E7, rho_outlet = 2576, Cp_outlet_sleeve = 833.07, k_outlet_sleeve = 164.97, sigma_outlet_sleeve = 3.4257E7, rho_outlet_sleeve = 2506.8, Cp_inlet_sleeve = 907.23, k_inlet_sleeve = 157.34, sigma_inlet_sleeve = 4.2077E7, rho_inlet_sleeve = 2524.3) (degC), Point: 127Temperature (Cp_Al = 849.4, k_Al = 144.03, sigma_Al = 4.0555E7, rho_Al = 2646.1, Cp_inlet = 931.96, k_inlet = 159.28, sigma_inlet = 3.3383E7, rho_inlet = 2377.9, Cp_outlet = 842.7, k_outlet = 148.21, sigma_outlet = 3.8026E7, rho_outlet = 2576, Cp_outlet_sleeve = 833.07, k_outlet_sleeve = 164.97, sigma_outlet_sleeve = 3.4257E7, rho_outlet_sleeve = 2506.8, Cp_inlet_sleeve = 907.23, k_inlet_sleeve = 157.34, sigma_inlet_sleeve = 4.2077E7, rho_inlet_sleeve = 2524.3) (degC), Point: 128Temperature (Cp_Al = 849.4, k_Al = 144.03, sigma_Al = 4.0555E7, rho_Al = 2646.1, Cp_inlet = 931.96, k_inlet = 159.28, sigma_inlet = 3.3383E7, rho_inlet = 2377.9, Cp_outlet = 842.7, k_outlet = 148.21, sigma_outlet = 3.8026E7, rho_outlet = 2576, Cp_outlet_sleeve = 833.07, k_outlet_sleeve = 164.97, sigma_outlet_sleeve = 3.4257E7, rho_outlet_sleeve = 2506.8, Cp_inlet_sleeve = 907.23, k_inlet_sleeve = 157.34, sigma_inlet_sleeve = 4.2077E7, rho_inlet_sleeve = 2524.3) (degC), Point: 134Temperature (Cp_Al = 849.4, k_Al = 144.03, sigma_Al = 4.0555E7, rho_Al = 2646.1, Cp_inlet = 931.96, k_inlet = 159.28, sigma_inlet = 3.3383E7, rho_inlet = 2377.9, Cp_outlet = 842.7, k_outlet = 148.21, sigma_outlet = 3.8026E7, rho_outlet = 2576, Cp_outlet_sleeve = 833.07, k_outlet_sleeve = 164.97, sigma_outlet_sleeve = 3.4257E7, rho_outlet_sleeve = 2506.8, Cp_inlet_sleeve = 907.23, k_inlet_sleeve = 157.34, sigma_inlet_sleeve = 4.2077E7, rho_inlet_sleeve = 2524.3) (degC), Point: 138Temperature (Cp_Al = 849.4, k_Al = 144.03, sigma_Al = 4.0555E7, rho_Al = 2646.1, Cp_inlet = 931.96, k_inlet = 159.28, sigma_inlet = 3.3383E7, rho_inlet = 2377.9, Cp_outlet = 842.7, k_outlet = 148.21, sigma_outlet = 3.8026E7, rho_outlet = 2576, Cp_outlet_sleeve = 833.07, k_outlet_sleeve = 164.97, sigma_outlet_sleeve = 3.4257E7, rho_outlet_sleeve = 2506.8, Cp_inlet_sleeve = 907.23, k_inlet_sleeve = 157.34, sigma_inlet_sleeve = 4.2077E7, rho_inlet_sleeve = 2524.3) (degC), Point: 151Temperature (Cp_Al = 849.4, k_Al = 144.03, sigma_Al = 4.0555E7, rho_Al = 2646.1, Cp_inlet = 931.96, k_inlet = 159.28, sigma_inlet = 3.3383E7, rho_inlet = 2377.9, Cp_outlet = 842.7, k_outlet = 148.21, sigma_outlet = 3.8026E7, rho_outlet = 2576, Cp_outlet_sleeve = 833.07, k_outlet_sleeve = 164.97, sigma_outlet_sleeve = 3.4257E7, rho_outlet_sleeve = 2506.8, Cp_inlet_sleeve = 907.23, k_inlet_sleeve = 157.34, sigma_inlet_sleeve = 4.2077E7, rho_inlet_sleeve = 2524.3) (degC), Point: 154Temperature (Cp_Al = 849.4, k_Al = 144.03, sigma_Al = 4.0555E7, rho_Al = 2646.1, Cp_inlet = 931.96, k_inlet = 159.28, sigma_inlet = 3.3383E7, rho_inlet = 2377.9, Cp_outlet = 842.7, k_outlet = 148.21, sigma_outlet = 3.8026E7, rho_outlet = 2576, Cp_outlet_sleeve = 833.07, k_outlet_sleeve = 164.97, sigma_outlet_sleeve = 3.4257E7, rho_outlet_sleeve = 2506.8, Cp_inlet_sleeve = 907.23, k_inlet_sleeve = 157.34, sigma_inlet_sleeve = 4.2077E7, rho_inlet_sleeve = 2524.3) (degC), Point: 159Temperature (Cp_Al = 849.4, k_Al = 144.03, sigma_Al = 4.0555E7, rho_Al = 2646.1, Cp_inlet = 931.96, k_inlet = 159.28, sigma_inlet = 3.3383E7, rho_inlet = 2377.9, Cp_outlet = 842.7, k_outlet = 148.21, sigma_outlet = 3.8026E7, rho_outlet = 2576, Cp_outlet_sleeve = 833.07, k_outlet_sleeve = 164.97, sigma_outlet_sleeve = 3.4257E7, rho_outlet_sleeve = 2506.8, Cp_inlet_sleeve = 907.23, k_inlet_sleeve = 157.34, sigma_inlet_sleeve = 4.2077E7, rho_inlet_sleeve = 2524.3) (degC), Point: 163Temperature (Cp_Al = 849.4, k_Al = 144.03, sigma_Al = 4.0555E7, rho_Al = 2646.1, Cp_inlet = 931.96, k_inlet = 159.28, sigma_inlet = 3.3383E7, rho_inlet = 2377.9, Cp_outlet = 842.7, k_outlet = 148.21, sigma_outlet = 3.8026E7, rho_outlet = 2576, Cp_outlet_sleeve = 833.07, k_outlet_sleeve = 164.97, sigma_outlet_sleeve = 3.4257E7, rho_outlet_sleeve = 2506.8, Cp_inlet_sleeve = 907.23, k_inlet_sleeve = 157.34, sigma_inlet_sleeve = 4.2077E7, rho_inlet_sleeve = 2524.3) (degC), Point: 167Temperature (Cp_Al = 849.4, k_Al = 144.03, sigma_Al = 4.0555E7, rho_Al = 2646.1, Cp_inlet = 931.96, k_inlet = 159.28, sigma_inlet = 3.3383E7, rho_inlet = 2377.9, Cp_outlet = 842.7, k_outlet = 148.21, sigma_outlet = 3.8026E7, rho_outlet = 2576, Cp_outlet_sleeve = 833.07, k_outlet_sleeve = 164.97, sigma_outlet_sleeve = 3.4257E7, rho_outlet_sleeve = 2506.8, Cp_inlet_sleeve = 907.23, k_inlet_sleeve = 157.34, sigma_inlet_sleeve = 4.2077E7, rho_inlet_sleeve = 2524.3) (degC), Point: 168Temperature (Cp_Al = 849.4, k_Al = 144.03, sigma_Al = 4.0555E7, rho_Al = 2646.1, Cp_inlet = 931.96, k_inlet = 159.28, sigma_inlet = 3.3383E7, rho_inlet = 2377.9, Cp_outlet = 842.7, k_outlet = 148.21, sigma_outlet = 3.8026E7, rho_outlet = 2576, Cp_outlet_sleeve = 833.07, k_outlet_sleeve = 164.97, sigma_outlet_sleeve = 3.4257E7, rho_outlet_sleeve = 2506.8, Cp_inlet_sleeve = 907.23, k_inlet_sleeve = 157.34, sigma_inlet_sleeve = 4.2077E7, rho_inlet_sleeve = 2524.3) (degC), Point: 172Temperature (Cp_Al = 849.4, k_Al = 144.03, sigma_Al = 4.0555E7, rho_Al = 2646.1, Cp_inlet = 931.96, k_inlet = 159.28, sigma_inlet = 3.3383E7, rho_inlet = 2377.9, Cp_outlet = 842.7, k_outlet = 148.21, sigma_outlet = 3.8026E7, rho_outlet = 2576, Cp_outlet_sleeve = 833.07, k_outlet_sleeve = 164.97, sigma_outlet_sleeve = 3.4257E7, rho_outlet_sleeve = 2506.8, Cp_inlet_sleeve = 907.23, k_inlet_sleeve = 157.34, sigma_inlet_sleeve = 4.2077E7, rho_inlet_sleeve = 2524.3) (degC), Point: 181Temperature (Cp_Al = 849.4, k_Al = 144.03, sigma_Al = 4.0555E7, rho_Al = 2646.1, Cp_inlet = 931.96, k_inlet = 159.28, sigma_inlet = 3.3383E7, rho_inlet = 2377.9, Cp_outlet = 842.7, k_outlet = 148.21, sigma_outlet = 3.8026E7, rho_outlet = 2576, Cp_outlet_sleeve = 833.07, k_outlet_sleeve = 164.97, sigma_outlet_sleeve = 3.4257E7, rho_outlet_sleeve = 2506.8, Cp_inlet_sleeve = 907.23, k_inlet_sleeve = 157.34, sigma_inlet_sleeve = 4.2077E7, rho_inlet_sleeve = 2524.3) (degC), Point: 201Temperature (Cp_Al = 849.4, k_Al = 144.03, sigma_Al = 4.0555E7, rho_Al = 2646.1, Cp_inlet = 931.96, k_inlet = 159.28, sigma_inlet = 3.3383E7, rho_inlet = 2377.9, Cp_outlet = 842.7, k_outlet = 148.21, sigma_outlet = 3.8026E7, rho_outlet = 2576, Cp_outlet_sleeve = 833.07, k_outlet_sleeve = 164.97, sigma_outlet_sleeve = 3.4257E7, rho_outlet_sleeve = 2506.8, Cp_inlet_sleeve = 907.23, k_inlet_sleeve = 157.34, sigma_inlet_sleeve = 4.2077E7, rho_inlet_sleeve = 2524.3) (degC), Point: 210Temperature (Cp_Al = 849.4, k_Al = 144.03, sigma_Al = 4.0555E7, rho_Al = 2646.1, Cp_inlet = 931.96, k_inlet = 159.28, sigma_inlet = 3.3383E7, rho_inlet = 2377.9, Cp_outlet = 842.7, k_outlet = 148.21, sigma_outlet = 3.8026E7, rho_outlet = 2576, Cp_outlet_sleeve = 833.07, k_outlet_sleeve = 164.97, sigma_outlet_sleeve = 3.4257E7, rho_outlet_sleeve = 2506.8, Cp_inlet_sleeve = 907.23, k_inlet_sleeve = 157.34, sigma_inlet_sleeve = 4.2077E7, rho_inlet_sleeve = 2524.3) (degC), Point: 213Temperature (Cp_Al = 849.4, k_Al = 144.03, sigma_Al = 4.0555E7, rho_Al = 2646.1, Cp_inlet = 931.96, k_inlet = 159.28, sigma_inlet = 3.3383E7, rho_inlet = 2377.9, Cp_outlet = 842.7, k_outlet = 148.21, sigma_outlet = 3.8026E7, rho_outlet = 2576, Cp_outlet_sleeve = 833.07, k_outlet_sleeve = 164.97, sigma_outlet_sleeve = 3.4257E7, rho_outlet_sleeve = 2506.8, Cp_inlet_sleeve = 907.23, k_inlet_sleeve = 157.34, sigma_inlet_sleeve = 4.2077E7, rho_inlet_sleeve = 2524.3) (degC), Point: 215Temperature (Cp_Al = 849.4, k_Al = 144.03, sigma_Al = 4.0555E7, rho_Al = 2646.1, Cp_inlet = 931.96, k_inlet = 159.28, sigma_inlet = 3.3383E7, rho_inlet = 2377.9, Cp_outlet = 842.7, k_outlet = 148.21, sigma_outlet = 3.8026E7, rho_outlet = 2576, Cp_outlet_sleeve = 833.07, k_outlet_sleeve = 164.97, sigma_outlet_sleeve = 3.4257E7, rho_outlet_sleeve = 2506.8, Cp_inlet_sleeve = 907.23, k_inlet_sleeve = 157.34, sigma_inlet_sleeve = 4.2077E7, rho_inlet_sleeve = 2524.3) (degC), Point: 229Temperature (Cp_Al = 849.4, k_Al = 144.03, sigma_Al = 4.0555E7, rho_Al = 2646.1, Cp_inlet = 931.96, k_inlet = 159.28, sigma_inlet = 3.3383E7, rho_inlet = 2377.9, Cp_outlet = 842.7, k_outlet = 148.21, sigma_outlet = 3.8026E7, rho_outlet = 2576, Cp_outlet_sleeve = 833.07, k_outlet_sleeve = 164.97, sigma_outlet_sleeve = 3.4257E7, rho_outlet_sleeve = 2506.8, Cp_inlet_sleeve = 907.23, k_inlet_sleeve = 157.34, sigma_inlet_sleeve = 4.2077E7, rho_inlet_sleeve = 2524.3) (degC), Point: 232Temperature (Cp_Al = 849.4, k_Al = 144.03, sigma_Al = 4.0555E7, rho_Al = 2646.1, Cp_inlet = 931.96, k_inlet = 159.28, sigma_inlet = 3.3383E7, rho_inlet = 2377.9, Cp_outlet = 842.7, k_outlet = 148.21, sigma_outlet = 3.8026E7, rho_outlet = 2576, Cp_outlet_sleeve = 833.07, k_outlet_sleeve = 164.97, sigma_outlet_sleeve = 3.4257E7, rho_outlet_sleeve = 2506.8, Cp_inlet_sleeve = 907.23, k_inlet_sleeve = 157.34, sigma_inlet_sleeve = 4.2077E7, rho_inlet_sleeve = 2524.3) (degC), Point: 239Temperature (Cp_Al = 849.4, k_Al = 144.03, sigma_Al = 4.0555E7, rho_Al = 2646.1, Cp_inlet = 931.96, k_inlet = 159.28, sigma_inlet = 3.3383E7, rho_inlet = 2377.9, Cp_outlet = 842.7, k_outlet = 148.21, sigma_outlet = 3.8026E7, rho_outlet = 2576, Cp_outlet_sleeve = 833.07, k_outlet_sleeve = 164.97, sigma_outlet_sleeve = 3.4257E7, rho_outlet_sleeve = 2506.8, Cp_inlet_sleeve = 907.23, k_inlet_sleeve = 157.34, sigma_inlet_sleeve = 4.2077E7, rho_inlet_sleeve = 2524.3) (degC), Point: 252Temperature (Cp_Al = 849.4, k_Al = 144.03, sigma_Al = 4.0555E7, rho_Al = 2646.1, Cp_inlet = 931.96, k_inlet = 159.28, sigma_inlet = 3.3383E7, rho_inlet = 2377.9, Cp_outlet = 842.7, k_outlet = 148.21, sigma_outlet = 3.8026E7, rho_outlet = 2576, Cp_outlet_sleeve = 833.07, k_outlet_sleeve = 164.97, sigma_outlet_sleeve = 3.4257E7, rho_outlet_sleeve = 2506.8, Cp_inlet_sleeve = 907.23, k_inlet_sleeve = 157.34, sigma_inlet_sleeve = 4.2077E7, rho_inlet_sleeve = 2524.3) (degC), Point: 261Temperature (Cp_Al = 849.4, k_Al = 144.03, sigma_Al = 4.0555E7, rho_Al = 2646.1, Cp_inlet = 931.96, k_inlet = 159.28, sigma_inlet = 3.3383E7, rho_inlet = 2377.9, Cp_outlet = 842.7, k_outlet = 148.21, sigma_outlet = 3.8026E7, rho_outlet = 2576, Cp_outlet_sleeve = 833.07, k_outlet_sleeve = 164.97, sigma_outlet_sleeve = 3.4257E7, rho_outlet_sleeve = 2506.8, Cp_inlet_sleeve = 907.23, k_inlet_sleeve = 157.34, sigma_inlet_sleeve = 4.2077E7, rho_inlet_sleeve = 2524.3) (degC), Point: 270Temperature (Cp_Al = 849.4, k_Al = 144.03, sigma_Al = 4.0555E7, rho_Al = 2646.1, Cp_inlet = 931.96, k_inlet = 159.28, sigma_inlet = 3.3383E7, rho_inlet = 2377.9, Cp_outlet = 842.7, k_outlet = 148.21, sigma_outlet = 3.8026E7, rho_outlet = 2576, Cp_outlet_sleeve = 833.07, k_outlet_sleeve = 164.97, sigma_outlet_sleeve = 3.4257E7, rho_outlet_sleeve = 2506.8, Cp_inlet_sleeve = 907.23, k_inlet_sleeve = 157.34, sigma_inlet_sleeve = 4.2077E7, rho_inlet_sleeve = 2524.3) (degC), Point: 273Temperature (Cp_Al = 849.4, k_Al = 144.03, sigma_Al = 4.0555E7, rho_Al = 2646.1, Cp_inlet = 931.96, k_inlet = 159.28, sigma_inlet = 3.3383E7, rho_inlet = 2377.9, Cp_outlet = 842.7, k_outlet = 148.21, sigma_outlet = 3.8026E7, rho_outlet = 2576, Cp_outlet_sleeve = 833.07, k_outlet_sleeve = 164.97, sigma_outlet_sleeve = 3.4257E7, rho_outlet_sleeve = 2506.8, Cp_inlet_sleeve = 907.23, k_inlet_sleeve = 157.34, sigma_inlet_sleeve = 4.2077E7, rho_inlet_sleeve = 2524.3) (degC), Point: 275
0                        21.64111135240205        21.01326260195816        21.132155727603788       21.0087033452358         21.014182121678573       21.108314414247275       21.00883455190001        21.027539835742118       21.00147376678308        21.024631679570348       21.001240407871478       21.0006452623079         21.009504588982168       21.000111564193674       21.008169920080206       21.02109728852895        21.000054628289377       21.011592114137216       21.00073827037852        21.000299665202135       21.001780649822024       21.000175057771514       21.00026526277179        21.008819424526052       21.118813714121472       21.013611011514456       21.579251983357835       21.0085895239705         21.145059562095014       21.016376107309043       21.713160957891944
3                        312.85025331586155       279.3029603739178        289.08198285286164       284.5054271824565        266.4593495248124        279.1271929966475        277.41923108278945       265.78103097273095       260.9012022343426        271.7888385262838        273.8176751781376        265.6693270678902        263.0166641372116        250.45147920123986       255.34927038468106       246.0423171162072        241.48982426038936       250.5473663474247        252.04592409200393       245.69543052533027       244.78951562934094       238.20891257263736       241.0114451608108        279.408335460853         281.5549199088639        268.00782210383863       301.6581137882265        286.0724073520008        290.8875725010246        278.43064356845105       316.8555233610077
6                        438.24080417394873       403.1652563496831        416.8219921251141        413.0066096237017        390.2884737860495        407.93135574880023       407.2912228588507        391.4357466390361        384.5772440058855        400.4930404857106        403.59498661676525       395.42457394419876       391.70218431596606       374.0996427598127        380.9666447325385        370.1139122250411        363.9582548881159        377.0899908629958        379.38895773279626       373.00921334175064       371.3666662833589        360.9012903618376        365.2472662379329        409.07905514152185       410.1305267466697        391.500984662361         427.1478042865126        412.1255408982179        416.16033851757254       399.572413637424         439.64262530229894
9                        511.69969135940823       475.7205812354965        492.11619450477497       489.0565911275917        460.3347181735253        481.25636138346647       481.52875390449765       462.50107324191697       454.5294193760392        473.7610674486498        477.7792898358672        469.6009416026973        464.9631182998645        444.0405489022595        452.0113502837148        442.67683870679105       435.5700896443708        451.5717572383762        454.65636177506735       448.40443197502714       446.00905127741066       432.7726042188906        438.0375237996749        483.21122798534645       483.32640828260344       461.34628725732443       498.11571753988596       486.71094980916314       489.9617956684285        470.4422992943547        511.4959554874838
12                       562.116657417433         525.5306292327003        543.9238839443166        541.4803224864421        507.4759091792972        530.6584942997712        531.6225930429138        510.2916574144988        501.6099896611996        523.1275814490738        527.8401088167018        519.6604198677461        514.3282755902842        491.1163333160936        499.7903681984841        492.56300366038647       484.8178224964155        502.9066475803503        506.62931237943576       500.46301911584237       497.44397520046755       482.1693543244951        488.05458245944453       533.2446344509467        532.6499311026286        508.36034348257806       545.8455474450413        538.302669062765         540.9068422562075        519.2396648102848        560.9564141225072
15                       600.1676172236914        563.141487728207         583.0648358992366        581.1239190749842        542.6873925233442        567.5132306775741        569.0079496126967        545.9524698974215        536.7806918912103        559.9589785042771        565.2039712788526        557.0260451121186        551.1611169577282        526.2856976190152        535.4447886863502        530.2784057575363        522.0714640358084        541.7538050603581        545.9957835189667        539.9129011757425        536.3793348640023        519.5333361223649        525.8700958857709        570.5941433192304        569.454862583567         543.4881121941088        581.4670639102796        577.4656382295658        579.5377763041528        556.2212314707692        598.4192216990127
18                       630.5299195746155        593.1705261882862        614.308718893466         612.786877973727         570.5877595842568        596.6550307585659        598.5689903569237        574.1779799906573        564.6532197724175        589.0853546291459        594.7509086356941        586.5760940775219        580.2901449573914        554.1585760566052        563.6667359667097        560.4229962628863        551.8675177857123        572.8110088840975        577.4850616014099        571.483521812171         567.5176140477741        549.4180676080182        556.0976017543693        600.1343689230333        598.5648860010366        571.3325391862867        609.666726654185         608.8566567320471        610.482742969027         585.8553897450437        628.4173771875252
21                       656.4500301926961        618.8224054478698        640.9690846495427        639.8054244213387        594.3531836572068        621.4149091079623        623.6744891256359        598.1968562827714        588.3987896178348        613.834593057104         619.8467355510222        611.675443759684         605.0424159849664        577.9052355997314        587.683510264728         586.1925460240079        577.3575436365479        599.3448643350084        604.3875551496342        598.4626790628454        594.1257582515366        574.9834841511546        581.9389745799087        625.227592091699         623.3035843362222        595.0588660445062        633.6677523840075        635.7159878025112        636.9600065812432        611.2459409138651        654.0998213398435
24                       679.5816333594976        641.7296042102387        664.7366892789853        663.8838984861333        615.5854525888947        643.4776359568377        646.031270429924         619.6372944376035        609.6164478855719        635.8897623239008        642.1966789486573        634.028928411534         627.1006518715581        599.1242982218051        609.1226494668649        609.2151040424203        600.1470706899215        623.0225539712364        628.3846729196887        622.5299293440751        617.8704700688305        597.8383821504071        605.0244567482647        647.5772642826261        645.3517804102327        616.2629323704484        655.0954241243546        659.6993734487908        660.6117986130491        633.9731278783021        677.0699805788361
27                       700.7791921699028        662.7358777290872        686.4860484821637        685.9045910108465        635.1130704074504        663.7149198499895        666.5230498310992        639.3409417160681        629.1331145558696        656.1215987476834        662.6835490351668        654.5191849030399        647.3354336807245        618.6424786985199        628.825473278328         630.3313894190218        621.0653538960801        644.7060761787793        650.3465948259201        644.5549457981392        639.6138435824954        618.8137700984976        626.1960358692806        668.0652346310962        665.5789757177666        635.7698448022256        674.7897571104078        681.663909371936         682.2872141447956        654.8525780343667        698.1554487573815
