% Model:              brazing.mph
% Version:            COMSOL 5.3.0.223
% Date:               Oct 24 2018, 00:12
% Table:              Table 3 - 
% Time (s)               Temperature (Cp_Al = 958.3, k_Al = 173.8, sigma_Al = 3.7635E7, rho_Al = 2712.9, Cp_inlet = 855.4, k_inlet = 144.1, sigma_inlet = 3.6225E7, rho_inlet = 2730.4, Cp_outlet = 889, k_outlet = 149, sigma_outlet = 3.4862E7, rho_outlet = 2525.1, Cp_outlet_sleeve = 857.6, k_outlet_sleeve = 166.3, sigma_outlet_sleeve = 3.5215E7, rho_outlet_sleeve = 2658.3, Cp_inlet_sleeve = 845.5, k_inlet_sleeve = 155.1, sigma_inlet_sleeve = 3.4028E7, rho_inlet_sleeve = 2540.7) (degC), Point: 55Temperature (Cp_Al = 958.3, k_Al = 173.8, sigma_Al = 3.7635E7, rho_Al = 2712.9, Cp_inlet = 855.4, k_inlet = 144.1, sigma_inlet = 3.6225E7, rho_inlet = 2730.4, Cp_outlet = 889, k_outlet = 149, sigma_outlet = 3.4862E7, rho_outlet = 2525.1, Cp_outlet_sleeve = 857.6, k_outlet_sleeve = 166.3, sigma_outlet_sleeve = 3.5215E7, rho_outlet_sleeve = 2658.3, Cp_inlet_sleeve = 845.5, k_inlet_sleeve = 155.1, sigma_inlet_sleeve = 3.4028E7, rho_inlet_sleeve = 2540.7) (degC), Point: 56Temperature (Cp_Al = 958.3, k_Al = 173.8, sigma_Al = 3.7635E7, rho_Al = 2712.9, Cp_inlet = 855.4, k_inlet = 144.1, sigma_inlet = 3.6225E7, rho_inlet = 2730.4, Cp_outlet = 889, k_outlet = 149, sigma_outlet = 3.4862E7, rho_outlet = 2525.1, Cp_outlet_sleeve = 857.6, k_outlet_sleeve = 166.3, sigma_outlet_sleeve = 3.5215E7, rho_outlet_sleeve = 2658.3, Cp_inlet_sleeve = 845.5, k_inlet_sleeve = 155.1, sigma_inlet_sleeve = 3.4028E7, rho_inlet_sleeve = 2540.7) (degC), Point: 60Temperature (Cp_Al = 958.3, k_Al = 173.8, sigma_Al = 3.7635E7, rho_Al = 2712.9, Cp_inlet = 855.4, k_inlet = 144.1, sigma_inlet = 3.6225E7, rho_inlet = 2730.4, Cp_outlet = 889, k_outlet = 149, sigma_outlet = 3.4862E7, rho_outlet = 2525.1, Cp_outlet_sleeve = 857.6, k_outlet_sleeve = 166.3, sigma_outlet_sleeve = 3.5215E7, rho_outlet_sleeve = 2658.3, Cp_inlet_sleeve = 845.5, k_inlet_sleeve = 155.1, sigma_inlet_sleeve = 3.4028E7, rho_inlet_sleeve = 2540.7) (degC), Point: 69Temperature (Cp_Al = 958.3, k_Al = 173.8, sigma_Al = 3.7635E7, rho_Al = 2712.9, Cp_inlet = 855.4, k_inlet = 144.1, sigma_inlet = 3.6225E7, rho_inlet = 2730.4, Cp_outlet = 889, k_outlet = 149, sigma_outlet = 3.4862E7, rho_outlet = 2525.1, Cp_outlet_sleeve = 857.6, k_outlet_sleeve = 166.3, sigma_outlet_sleeve = 3.5215E7, rho_outlet_sleeve = 2658.3, Cp_inlet_sleeve = 845.5, k_inlet_sleeve = 155.1, sigma_inlet_sleeve = 3.4028E7, rho_inlet_sleeve = 2540.7) (degC), Point: 90Temperature (Cp_Al = 958.3, k_Al = 173.8, sigma_Al = 3.7635E7, rho_Al = 2712.9, Cp_inlet = 855.4, k_inlet = 144.1, sigma_inlet = 3.6225E7, rho_inlet = 2730.4, Cp_outlet = 889, k_outlet = 149, sigma_outlet = 3.4862E7, rho_outlet = 2525.1, Cp_outlet_sleeve = 857.6, k_outlet_sleeve = 166.3, sigma_outlet_sleeve = 3.5215E7, rho_outlet_sleeve = 2658.3, Cp_inlet_sleeve = 845.5, k_inlet_sleeve = 155.1, sigma_inlet_sleeve = 3.4028E7, rho_inlet_sleeve = 2540.7) (degC), Point: 98Temperature (Cp_Al = 958.3, k_Al = 173.8, sigma_Al = 3.7635E7, rho_Al = 2712.9, Cp_inlet = 855.4, k_inlet = 144.1, sigma_inlet = 3.6225E7, rho_inlet = 2730.4, Cp_outlet = 889, k_outlet = 149, sigma_outlet = 3.4862E7, rho_outlet = 2525.1, Cp_outlet_sleeve = 857.6, k_outlet_sleeve = 166.3, sigma_outlet_sleeve = 3.5215E7, rho_outlet_sleeve = 2658.3, Cp_inlet_sleeve = 845.5, k_inlet_sleeve = 155.1, sigma_inlet_sleeve = 3.4028E7, rho_inlet_sleeve = 2540.7) (degC), Point: 102Temperature (Cp_Al = 958.3, k_Al = 173.8, sigma_Al = 3.7635E7, rho_Al = 2712.9, Cp_inlet = 855.4, k_inlet = 144.1, sigma_inlet = 3.6225E7, rho_inlet = 2730.4, Cp_outlet = 889, k_outlet = 149, sigma_outlet = 3.4862E7, rho_outlet = 2525.1, Cp_outlet_sleeve = 857.6, k_outlet_sleeve = 166.3, sigma_outlet_sleeve = 3.5215E7, rho_outlet_sleeve = 2658.3, Cp_inlet_sleeve = 845.5, k_inlet_sleeve = 155.1, sigma_inlet_sleeve = 3.4028E7, rho_inlet_sleeve = 2540.7) (degC), Point: 127Temperature (Cp_Al = 958.3, k_Al = 173.8, sigma_Al = 3.7635E7, rho_Al = 2712.9, Cp_inlet = 855.4, k_inlet = 144.1, sigma_inlet = 3.6225E7, rho_inlet = 2730.4, Cp_outlet = 889, k_outlet = 149, sigma_outlet = 3.4862E7, rho_outlet = 2525.1, Cp_outlet_sleeve = 857.6, k_outlet_sleeve = 166.3, sigma_outlet_sleeve = 3.5215E7, rho_outlet_sleeve = 2658.3, Cp_inlet_sleeve = 845.5, k_inlet_sleeve = 155.1, sigma_inlet_sleeve = 3.4028E7, rho_inlet_sleeve = 2540.7) (degC), Point: 128Temperature (Cp_Al = 958.3, k_Al = 173.8, sigma_Al = 3.7635E7, rho_Al = 2712.9, Cp_inlet = 855.4, k_inlet = 144.1, sigma_inlet = 3.6225E7, rho_inlet = 2730.4, Cp_outlet = 889, k_outlet = 149, sigma_outlet = 3.4862E7, rho_outlet = 2525.1, Cp_outlet_sleeve = 857.6, k_outlet_sleeve = 166.3, sigma_outlet_sleeve = 3.5215E7, rho_outlet_sleeve = 2658.3, Cp_inlet_sleeve = 845.5, k_inlet_sleeve = 155.1, sigma_inlet_sleeve = 3.4028E7, rho_inlet_sleeve = 2540.7) (degC), Point: 134Temperature (Cp_Al = 958.3, k_Al = 173.8, sigma_Al = 3.7635E7, rho_Al = 2712.9, Cp_inlet = 855.4, k_inlet = 144.1, sigma_inlet = 3.6225E7, rho_inlet = 2730.4, Cp_outlet = 889, k_outlet = 149, sigma_outlet = 3.4862E7, rho_outlet = 2525.1, Cp_outlet_sleeve = 857.6, k_outlet_sleeve = 166.3, sigma_outlet_sleeve = 3.5215E7, rho_outlet_sleeve = 2658.3, Cp_inlet_sleeve = 845.5, k_inlet_sleeve = 155.1, sigma_inlet_sleeve = 3.4028E7, rho_inlet_sleeve = 2540.7) (degC), Point: 138Temperature (Cp_Al = 958.3, k_Al = 173.8, sigma_Al = 3.7635E7, rho_Al = 2712.9, Cp_inlet = 855.4, k_inlet = 144.1, sigma_inlet = 3.6225E7, rho_inlet = 2730.4, Cp_outlet = 889, k_outlet = 149, sigma_outlet = 3.4862E7, rho_outlet = 2525.1, Cp_outlet_sleeve = 857.6, k_outlet_sleeve = 166.3, sigma_outlet_sleeve = 3.5215E7, rho_outlet_sleeve = 2658.3, Cp_inlet_sleeve = 845.5, k_inlet_sleeve = 155.1, sigma_inlet_sleeve = 3.4028E7, rho_inlet_sleeve = 2540.7) (degC), Point: 151Temperature (Cp_Al = 958.3, k_Al = 173.8, sigma_Al = 3.7635E7, rho_Al = 2712.9, Cp_inlet = 855.4, k_inlet = 144.1, sigma_inlet = 3.6225E7, rho_inlet = 2730.4, Cp_outlet = 889, k_outlet = 149, sigma_outlet = 3.4862E7, rho_outlet = 2525.1, Cp_outlet_sleeve = 857.6, k_outlet_sleeve = 166.3, sigma_outlet_sleeve = 3.5215E7, rho_outlet_sleeve = 2658.3, Cp_inlet_sleeve = 845.5, k_inlet_sleeve = 155.1, sigma_inlet_sleeve = 3.4028E7, rho_inlet_sleeve = 2540.7) (degC), Point: 154Temperature (Cp_Al = 958.3, k_Al = 173.8, sigma_Al = 3.7635E7, rho_Al = 2712.9, Cp_inlet = 855.4, k_inlet = 144.1, sigma_inlet = 3.6225E7, rho_inlet = 2730.4, Cp_outlet = 889, k_outlet = 149, sigma_outlet = 3.4862E7, rho_outlet = 2525.1, Cp_outlet_sleeve = 857.6, k_outlet_sleeve = 166.3, sigma_outlet_sleeve = 3.5215E7, rho_outlet_sleeve = 2658.3, Cp_inlet_sleeve = 845.5, k_inlet_sleeve = 155.1, sigma_inlet_sleeve = 3.4028E7, rho_inlet_sleeve = 2540.7) (degC), Point: 159Temperature (Cp_Al = 958.3, k_Al = 173.8, sigma_Al = 3.7635E7, rho_Al = 2712.9, Cp_inlet = 855.4, k_inlet = 144.1, sigma_inlet = 3.6225E7, rho_inlet = 2730.4, Cp_outlet = 889, k_outlet = 149, sigma_outlet = 3.4862E7, rho_outlet = 2525.1, Cp_outlet_sleeve = 857.6, k_outlet_sleeve = 166.3, sigma_outlet_sleeve = 3.5215E7, rho_outlet_sleeve = 2658.3, Cp_inlet_sleeve = 845.5, k_inlet_sleeve = 155.1, sigma_inlet_sleeve = 3.4028E7, rho_inlet_sleeve = 2540.7) (degC), Point: 163Temperature (Cp_Al = 958.3, k_Al = 173.8, sigma_Al = 3.7635E7, rho_Al = 2712.9, Cp_inlet = 855.4, k_inlet = 144.1, sigma_inlet = 3.6225E7, rho_inlet = 2730.4, Cp_outlet = 889, k_outlet = 149, sigma_outlet = 3.4862E7, rho_outlet = 2525.1, Cp_outlet_sleeve = 857.6, k_outlet_sleeve = 166.3, sigma_outlet_sleeve = 3.5215E7, rho_outlet_sleeve = 2658.3, Cp_inlet_sleeve = 845.5, k_inlet_sleeve = 155.1, sigma_inlet_sleeve = 3.4028E7, rho_inlet_sleeve = 2540.7) (degC), Point: 167Temperature (Cp_Al = 958.3, k_Al = 173.8, sigma_Al = 3.7635E7, rho_Al = 2712.9, Cp_inlet = 855.4, k_inlet = 144.1, sigma_inlet = 3.6225E7, rho_inlet = 2730.4, Cp_outlet = 889, k_outlet = 149, sigma_outlet = 3.4862E7, rho_outlet = 2525.1, Cp_outlet_sleeve = 857.6, k_outlet_sleeve = 166.3, sigma_outlet_sleeve = 3.5215E7, rho_outlet_sleeve = 2658.3, Cp_inlet_sleeve = 845.5, k_inlet_sleeve = 155.1, sigma_inlet_sleeve = 3.4028E7, rho_inlet_sleeve = 2540.7) (degC), Point: 168Temperature (Cp_Al = 958.3, k_Al = 173.8, sigma_Al = 3.7635E7, rho_Al = 2712.9, Cp_inlet = 855.4, k_inlet = 144.1, sigma_inlet = 3.6225E7, rho_inlet = 2730.4, Cp_outlet = 889, k_outlet = 149, sigma_outlet = 3.4862E7, rho_outlet = 2525.1, Cp_outlet_sleeve = 857.6, k_outlet_sleeve = 166.3, sigma_outlet_sleeve = 3.5215E7, rho_outlet_sleeve = 2658.3, Cp_inlet_sleeve = 845.5, k_inlet_sleeve = 155.1, sigma_inlet_sleeve = 3.4028E7, rho_inlet_sleeve = 2540.7) (degC), Point: 172Temperature (Cp_Al = 958.3, k_Al = 173.8, sigma_Al = 3.7635E7, rho_Al = 2712.9, Cp_inlet = 855.4, k_inlet = 144.1, sigma_inlet = 3.6225E7, rho_inlet = 2730.4, Cp_outlet = 889, k_outlet = 149, sigma_outlet = 3.4862E7, rho_outlet = 2525.1, Cp_outlet_sleeve = 857.6, k_outlet_sleeve = 166.3, sigma_outlet_sleeve = 3.5215E7, rho_outlet_sleeve = 2658.3, Cp_inlet_sleeve = 845.5, k_inlet_sleeve = 155.1, sigma_inlet_sleeve = 3.4028E7, rho_inlet_sleeve = 2540.7) (degC), Point: 181Temperature (Cp_Al = 958.3, k_Al = 173.8, sigma_Al = 3.7635E7, rho_Al = 2712.9, Cp_inlet = 855.4, k_inlet = 144.1, sigma_inlet = 3.6225E7, rho_inlet = 2730.4, Cp_outlet = 889, k_outlet = 149, sigma_outlet = 3.4862E7, rho_outlet = 2525.1, Cp_outlet_sleeve = 857.6, k_outlet_sleeve = 166.3, sigma_outlet_sleeve = 3.5215E7, rho_outlet_sleeve = 2658.3, Cp_inlet_sleeve = 845.5, k_inlet_sleeve = 155.1, sigma_inlet_sleeve = 3.4028E7, rho_inlet_sleeve = 2540.7) (degC), Point: 201Temperature (Cp_Al = 958.3, k_Al = 173.8, sigma_Al = 3.7635E7, rho_Al = 2712.9, Cp_inlet = 855.4, k_inlet = 144.1, sigma_inlet = 3.6225E7, rho_inlet = 2730.4, Cp_outlet = 889, k_outlet = 149, sigma_outlet = 3.4862E7, rho_outlet = 2525.1, Cp_outlet_sleeve = 857.6, k_outlet_sleeve = 166.3, sigma_outlet_sleeve = 3.5215E7, rho_outlet_sleeve = 2658.3, Cp_inlet_sleeve = 845.5, k_inlet_sleeve = 155.1, sigma_inlet_sleeve = 3.4028E7, rho_inlet_sleeve = 2540.7) (degC), Point: 210Temperature (Cp_Al = 958.3, k_Al = 173.8, sigma_Al = 3.7635E7, rho_Al = 2712.9, Cp_inlet = 855.4, k_inlet = 144.1, sigma_inlet = 3.6225E7, rho_inlet = 2730.4, Cp_outlet = 889, k_outlet = 149, sigma_outlet = 3.4862E7, rho_outlet = 2525.1, Cp_outlet_sleeve = 857.6, k_outlet_sleeve = 166.3, sigma_outlet_sleeve = 3.5215E7, rho_outlet_sleeve = 2658.3, Cp_inlet_sleeve = 845.5, k_inlet_sleeve = 155.1, sigma_inlet_sleeve = 3.4028E7, rho_inlet_sleeve = 2540.7) (degC), Point: 213Temperature (Cp_Al = 958.3, k_Al = 173.8, sigma_Al = 3.7635E7, rho_Al = 2712.9, Cp_inlet = 855.4, k_inlet = 144.1, sigma_inlet = 3.6225E7, rho_inlet = 2730.4, Cp_outlet = 889, k_outlet = 149, sigma_outlet = 3.4862E7, rho_outlet = 2525.1, Cp_outlet_sleeve = 857.6, k_outlet_sleeve = 166.3, sigma_outlet_sleeve = 3.5215E7, rho_outlet_sleeve = 2658.3, Cp_inlet_sleeve = 845.5, k_inlet_sleeve = 155.1, sigma_inlet_sleeve = 3.4028E7, rho_inlet_sleeve = 2540.7) (degC), Point: 215Temperature (Cp_Al = 958.3, k_Al = 173.8, sigma_Al = 3.7635E7, rho_Al = 2712.9, Cp_inlet = 855.4, k_inlet = 144.1, sigma_inlet = 3.6225E7, rho_inlet = 2730.4, Cp_outlet = 889, k_outlet = 149, sigma_outlet = 3.4862E7, rho_outlet = 2525.1, Cp_outlet_sleeve = 857.6, k_outlet_sleeve = 166.3, sigma_outlet_sleeve = 3.5215E7, rho_outlet_sleeve = 2658.3, Cp_inlet_sleeve = 845.5, k_inlet_sleeve = 155.1, sigma_inlet_sleeve = 3.4028E7, rho_inlet_sleeve = 2540.7) (degC), Point: 229Temperature (Cp_Al = 958.3, k_Al = 173.8, sigma_Al = 3.7635E7, rho_Al = 2712.9, Cp_inlet = 855.4, k_inlet = 144.1, sigma_inlet = 3.6225E7, rho_inlet = 2730.4, Cp_outlet = 889, k_outlet = 149, sigma_outlet = 3.4862E7, rho_outlet = 2525.1, Cp_outlet_sleeve = 857.6, k_outlet_sleeve = 166.3, sigma_outlet_sleeve = 3.5215E7, rho_outlet_sleeve = 2658.3, Cp_inlet_sleeve = 845.5, k_inlet_sleeve = 155.1, sigma_inlet_sleeve = 3.4028E7, rho_inlet_sleeve = 2540.7) (degC), Point: 232Temperature (Cp_Al = 958.3, k_Al = 173.8, sigma_Al = 3.7635E7, rho_Al = 2712.9, Cp_inlet = 855.4, k_inlet = 144.1, sigma_inlet = 3.6225E7, rho_inlet = 2730.4, Cp_outlet = 889, k_outlet = 149, sigma_outlet = 3.4862E7, rho_outlet = 2525.1, Cp_outlet_sleeve = 857.6, k_outlet_sleeve = 166.3, sigma_outlet_sleeve = 3.5215E7, rho_outlet_sleeve = 2658.3, Cp_inlet_sleeve = 845.5, k_inlet_sleeve = 155.1, sigma_inlet_sleeve = 3.4028E7, rho_inlet_sleeve = 2540.7) (degC), Point: 239Temperature (Cp_Al = 958.3, k_Al = 173.8, sigma_Al = 3.7635E7, rho_Al = 2712.9, Cp_inlet = 855.4, k_inlet = 144.1, sigma_inlet = 3.6225E7, rho_inlet = 2730.4, Cp_outlet = 889, k_outlet = 149, sigma_outlet = 3.4862E7, rho_outlet = 2525.1, Cp_outlet_sleeve = 857.6, k_outlet_sleeve = 166.3, sigma_outlet_sleeve = 3.5215E7, rho_outlet_sleeve = 2658.3, Cp_inlet_sleeve = 845.5, k_inlet_sleeve = 155.1, sigma_inlet_sleeve = 3.4028E7, rho_inlet_sleeve = 2540.7) (degC), Point: 252Temperature (Cp_Al = 958.3, k_Al = 173.8, sigma_Al = 3.7635E7, rho_Al = 2712.9, Cp_inlet = 855.4, k_inlet = 144.1, sigma_inlet = 3.6225E7, rho_inlet = 2730.4, Cp_outlet = 889, k_outlet = 149, sigma_outlet = 3.4862E7, rho_outlet = 2525.1, Cp_outlet_sleeve = 857.6, k_outlet_sleeve = 166.3, sigma_outlet_sleeve = 3.5215E7, rho_outlet_sleeve = 2658.3, Cp_inlet_sleeve = 845.5, k_inlet_sleeve = 155.1, sigma_inlet_sleeve = 3.4028E7, rho_inlet_sleeve = 2540.7) (degC), Point: 261Temperature (Cp_Al = 958.3, k_Al = 173.8, sigma_Al = 3.7635E7, rho_Al = 2712.9, Cp_inlet = 855.4, k_inlet = 144.1, sigma_inlet = 3.6225E7, rho_inlet = 2730.4, Cp_outlet = 889, k_outlet = 149, sigma_outlet = 3.4862E7, rho_outlet = 2525.1, Cp_outlet_sleeve = 857.6, k_outlet_sleeve = 166.3, sigma_outlet_sleeve = 3.5215E7, rho_outlet_sleeve = 2658.3, Cp_inlet_sleeve = 845.5, k_inlet_sleeve = 155.1, sigma_inlet_sleeve = 3.4028E7, rho_inlet_sleeve = 2540.7) (degC), Point: 270Temperature (Cp_Al = 958.3, k_Al = 173.8, sigma_Al = 3.7635E7, rho_Al = 2712.9, Cp_inlet = 855.4, k_inlet = 144.1, sigma_inlet = 3.6225E7, rho_inlet = 2730.4, Cp_outlet = 889, k_outlet = 149, sigma_outlet = 3.4862E7, rho_outlet = 2525.1, Cp_outlet_sleeve = 857.6, k_outlet_sleeve = 166.3, sigma_outlet_sleeve = 3.5215E7, rho_outlet_sleeve = 2658.3, Cp_inlet_sleeve = 845.5, k_inlet_sleeve = 155.1, sigma_inlet_sleeve = 3.4028E7, rho_inlet_sleeve = 2540.7) (degC), Point: 273Temperature (Cp_Al = 958.3, k_Al = 173.8, sigma_Al = 3.7635E7, rho_Al = 2712.9, Cp_inlet = 855.4, k_inlet = 144.1, sigma_inlet = 3.6225E7, rho_inlet = 2730.4, Cp_outlet = 889, k_outlet = 149, sigma_outlet = 3.4862E7, rho_outlet = 2525.1, Cp_outlet_sleeve = 857.6, k_outlet_sleeve = 166.3, sigma_outlet_sleeve = 3.5215E7, rho_outlet_sleeve = 2658.3, Cp_inlet_sleeve = 845.5, k_inlet_sleeve = 155.1, sigma_inlet_sleeve = 3.4028E7, rho_inlet_sleeve = 2540.7) (degC), Point: 275
0                        21.59889528886498        21.012025226650508       21.13277658406963        21.00866618404973        21.015569121249484       21.109726235694325       21.0085402169845         21.02610293669528        21.00168110320186        21.02489784373546        21.00121293079127        21.000643482425005       21.00969493778331        21.00012207631977        21.007886741608445       21.019663982572695       21.000052611637216       21.011632185488168       21.000725166851623       21.000291061656867       21.00177812809659        21.000164016435974       21.00024648311353        21.00854212838334        21.12039524421931        21.014984502164737       21.56018703981789        21.008568317172376       21.145765299631876       21.015011915671437       21.666255082008604
3                        301.55383944797154       267.8338325527353        278.69749659452384       274.4355464679479        274.6066815726607        286.5264928994004        284.4206525588438        273.6087045464094        268.9069621768375        278.94438202151593       280.5884765037707        271.5720173287016        269.2855997135009        257.28240237512387       262.2230712397362        235.31077361661255       230.6273419122918        240.48586593057792       242.26647676070172       235.70832162913013       234.53426307679172       227.17759865064016       230.11804843422465       286.62518786379303       289.177581639049         276.3216688582223        309.3981621727685        276.3551310020613        280.86870332798014       267.4102092249843        305.9486396740019
6                        421.8281964856167        386.5310847735328        401.36932828539204       397.9149997239816        397.2221240483875        414.9370633373559        414.1223174321459        398.29396356017253       391.36869494821735       407.25066125777437       410.18939246774494       401.1583842018904        397.58174706904015       379.7245902572736        386.8767509193963        354.4530052909628        348.12871580893307       362.12633965195766       364.7458308521776        358.05099128970426       356.09543502082784       344.7657654894093        349.2949178968955        416.1245332900056        417.3576197354722        398.6084042065579        433.92299115718527       397.56747266972013       401.2627798173643        383.61714247802945       423.83325552467954
9                        491.62265222983876       455.392083546369         473.039440483302         470.36883904779233       463.7836243628225        485.19652601613416       485.43789311754676       465.9853825716327        457.84014929843477       477.4548256195243        481.45228135911157       472.4146641556388        467.78069751602106       446.1876456036932        454.54839429582296       423.4258250150201        416.1268423346388        433.0485528077587        436.47783179652015       429.89233790930155       427.15802716629355       412.99650061762225       418.47061377379146       487.3396021968489        487.49192048119744       464.9799215225129        501.5213944312728        468.6618075921459        471.5513092276219        450.9310433874771        492.14967079094436
12                       538.8071831424418        501.9541988094513        521.643137539298         519.6079040541794        507.352282603356         531.2333429885875        532.245780636781         510.2543128928834        501.3517804788763        523.4579309297654        528.2283265808967        519.1904578762096        513.7838382575077        489.69675109369814       498.8067785161858        470.12698867326196       462.1779422048329        481.2209428397605        485.30536517261874       478.79940057106353       475.4238771599813        459.188129402439         465.29491700018116       534.0920039307102        533.4545837710924        508.4309086388116        545.733728780441         517.1430331880871        519.3707694790529        496.5778615012199        538.4675563739011
15                       574.2187405357635        536.9153268654559        558.1642575955698        556.6440916943275        539.6043109573151        565.2381870404139        566.8242028026116        542.9833075658693        533.5655758350146        557.4407705245972        562.7861015664636        553.7508226927384        547.7691524545646        521.9108607270596        531.5302983153906        505.2343816787401        496.8158443019838        517.4756058063812        522.0902266542724        515.664481663705         511.7634603236538        493.9325308437428        500.4988357233241        568.6380417896285        567.4128848459399        540.6059860320589        578.4265274978945        553.7481748834168        555.4345903747899        530.9760696515249        573.352020287623
18                       602.2446809503351        564.6022539739677        587.0832370022753        585.9894450968584        564.8888121378133        591.8097839189518        593.8342595428892        568.6050484785083        558.8242422678168        583.9979979977999        589.7827702290105        580.7511504934207        574.3297174371755        547.1710155741358        557.1492116750542        533.0655014634597        524.2945566384034        546.2278318857474        551.2807038081232        544.9343987948637        540.5948130527488        521.4976660895268        528.4107630344705        595.6298361357321        593.9552696114392        565.8397112387664        604.0248403797268        582.858159009858         584.0935307024179        558.317060840862         601.058858756536
21                       625.9996458314067        588.0861753835378        611.5845768267073        610.8532078107628        586.2461156796809        614.1714382399755        616.5473413173632        590.2190684512885        580.1633682373684        606.3499006602303        612.4868176806115        603.4590769888993        596.6851065151674        568.5120235841697        578.7617124677508        556.6881665065779        547.6363515676265        570.6185999346411        576.0434813487703        569.7723569449391        565.0582831553177        544.9128394308763        552.1034073755297        618.3326327476733        616.2978649808148        587.1620824556752        625.6229808592866        607.5920403318399        608.4428219519791        581.5784071210882        624.6119086827041
24                       647.101600611107         608.9623360025457        633.3260132938609        632.9082197788834        605.2265762918989        633.9743702469121        636.6433544367659        609.4064598223881        599.130638785872         626.1460353335406        632.5765603137345        623.552621206225         616.4846391170158        587.4812933468717        597.9482942037446        577.6960805151587        568.4110256077827        592.2832543781157        598.0295741138419        591.8273391073554        586.7885775373753        565.7510035403175        573.1725446122664        638.4231703718732        636.0880725052481        606.1177955784091        644.7992604407436        629.5761497480886        630.0939471277298        602.3061105280243        645.5815943549728
27                       666.4448547693081        628.1126681820227        653.225100005978         653.0813232336197        622.6910536772688        652.137071514248         655.0579330155914        627.0448947898975        616.5852566154125        644.3038751278804        650.9866672567127        641.9663268478042        634.6456899761693        604.9378972028637        615.5863124192801        596.969556847184         587.4857745332939        612.1265608852481        618.1534295924727        612.0132509245676        606.6905894431715        584.8813252045898        592.4999201042305        656.8352133914577        654.2420964437943        623.5642383866106        662.4296788828224        649.7115318285983        649.938534825412         621.3537180710717        664.8350232063854
