% Model:              brazing.mph
% Version:            COMSOL 5.3.0.223
% Date:               Oct 24 2018, 02:59
% Table:              Table 3 - 
% Time (s)               Temperature (Cp_Al = 863.52, k_Al = 144.97, sigma_Al = 3.9535E7, rho_Al = 2634.6, Cp_inlet = 926.45, k_inlet = 156.54, sigma_inlet = 3.4076E7, rho_inlet = 2428.5, Cp_outlet = 839.85, k_outlet = 152.62, sigma_outlet = 3.7409E7, rho_outlet = 2595.7, Cp_outlet_sleeve = 843.02, k_outlet_sleeve = 163.89, sigma_outlet_sleeve = 3.467E7, rho_outlet_sleeve = 2493.4, Cp_inlet_sleeve = 913.62, k_inlet_sleeve = 158.33, sigma_inlet_sleeve = 4.127E7, rho_inlet_sleeve = 2590.7) (degC), Point: 55Temperature (Cp_Al = 863.52, k_Al = 144.97, sigma_Al = 3.9535E7, rho_Al = 2634.6, Cp_inlet = 926.45, k_inlet = 156.54, sigma_inlet = 3.4076E7, rho_inlet = 2428.5, Cp_outlet = 839.85, k_outlet = 152.62, sigma_outlet = 3.7409E7, rho_outlet = 2595.7, Cp_outlet_sleeve = 843.02, k_outlet_sleeve = 163.89, sigma_outlet_sleeve = 3.467E7, rho_outlet_sleeve = 2493.4, Cp_inlet_sleeve = 913.62, k_inlet_sleeve = 158.33, sigma_inlet_sleeve = 4.127E7, rho_inlet_sleeve = 2590.7) (degC), Point: 56Temperature (Cp_Al = 863.52, k_Al = 144.97, sigma_Al = 3.9535E7, rho_Al = 2634.6, Cp_inlet = 926.45, k_inlet = 156.54, sigma_inlet = 3.4076E7, rho_inlet = 2428.5, Cp_outlet = 839.85, k_outlet = 152.62, sigma_outlet = 3.7409E7, rho_outlet = 2595.7, Cp_outlet_sleeve = 843.02, k_outlet_sleeve = 163.89, sigma_outlet_sleeve = 3.467E7, rho_outlet_sleeve = 2493.4, Cp_inlet_sleeve = 913.62, k_inlet_sleeve = 158.33, sigma_inlet_sleeve = 4.127E7, rho_inlet_sleeve = 2590.7) (degC), Point: 60Temperature (Cp_Al = 863.52, k_Al = 144.97, sigma_Al = 3.9535E7, rho_Al = 2634.6, Cp_inlet = 926.45, k_inlet = 156.54, sigma_inlet = 3.4076E7, rho_inlet = 2428.5, Cp_outlet = 839.85, k_outlet = 152.62, sigma_outlet = 3.7409E7, rho_outlet = 2595.7, Cp_outlet_sleeve = 843.02, k_outlet_sleeve = 163.89, sigma_outlet_sleeve = 3.467E7, rho_outlet_sleeve = 2493.4, Cp_inlet_sleeve = 913.62, k_inlet_sleeve = 158.33, sigma_inlet_sleeve = 4.127E7, rho_inlet_sleeve = 2590.7) (degC), Point: 69Temperature (Cp_Al = 863.52, k_Al = 144.97, sigma_Al = 3.9535E7, rho_Al = 2634.6, Cp_inlet = 926.45, k_inlet = 156.54, sigma_inlet = 3.4076E7, rho_inlet = 2428.5, Cp_outlet = 839.85, k_outlet = 152.62, sigma_outlet = 3.7409E7, rho_outlet = 2595.7, Cp_outlet_sleeve = 843.02, k_outlet_sleeve = 163.89, sigma_outlet_sleeve = 3.467E7, rho_outlet_sleeve = 2493.4, Cp_inlet_sleeve = 913.62, k_inlet_sleeve = 158.33, sigma_inlet_sleeve = 4.127E7, rho_inlet_sleeve = 2590.7) (degC), Point: 90Temperature (Cp_Al = 863.52, k_Al = 144.97, sigma_Al = 3.9535E7, rho_Al = 2634.6, Cp_inlet = 926.45, k_inlet = 156.54, sigma_inlet = 3.4076E7, rho_inlet = 2428.5, Cp_outlet = 839.85, k_outlet = 152.62, sigma_outlet = 3.7409E7, rho_outlet = 2595.7, Cp_outlet_sleeve = 843.02, k_outlet_sleeve = 163.89, sigma_outlet_sleeve = 3.467E7, rho_outlet_sleeve = 2493.4, Cp_inlet_sleeve = 913.62, k_inlet_sleeve = 158.33, sigma_inlet_sleeve = 4.127E7, rho_inlet_sleeve = 2590.7) (degC), Point: 98Temperature (Cp_Al = 863.52, k_Al = 144.97, sigma_Al = 3.9535E7, rho_Al = 2634.6, Cp_inlet = 926.45, k_inlet = 156.54, sigma_inlet = 3.4076E7, rho_inlet = 2428.5, Cp_outlet = 839.85, k_outlet = 152.62, sigma_outlet = 3.7409E7, rho_outlet = 2595.7, Cp_outlet_sleeve = 843.02, k_outlet_sleeve = 163.89, sigma_outlet_sleeve = 3.467E7, rho_outlet_sleeve = 2493.4, Cp_inlet_sleeve = 913.62, k_inlet_sleeve = 158.33, sigma_inlet_sleeve = 4.127E7, rho_inlet_sleeve = 2590.7) (degC), Point: 102Temperature (Cp_Al = 863.52, k_Al = 144.97, sigma_Al = 3.9535E7, rho_Al = 2634.6, Cp_inlet = 926.45, k_inlet = 156.54, sigma_inlet = 3.4076E7, rho_inlet = 2428.5, Cp_outlet = 839.85, k_outlet = 152.62, sigma_outlet = 3.7409E7, rho_outlet = 2595.7, Cp_outlet_sleeve = 843.02, k_outlet_sleeve = 163.89, sigma_outlet_sleeve = 3.467E7, rho_outlet_sleeve = 2493.4, Cp_inlet_sleeve = 913.62, k_inlet_sleeve = 158.33, sigma_inlet_sleeve = 4.127E7, rho_inlet_sleeve = 2590.7) (degC), Point: 127Temperature (Cp_Al = 863.52, k_Al = 144.97, sigma_Al = 3.9535E7, rho_Al = 2634.6, Cp_inlet = 926.45, k_inlet = 156.54, sigma_inlet = 3.4076E7, rho_inlet = 2428.5, Cp_outlet = 839.85, k_outlet = 152.62, sigma_outlet = 3.7409E7, rho_outlet = 2595.7, Cp_outlet_sleeve = 843.02, k_outlet_sleeve = 163.89, sigma_outlet_sleeve = 3.467E7, rho_outlet_sleeve = 2493.4, Cp_inlet_sleeve = 913.62, k_inlet_sleeve = 158.33, sigma_inlet_sleeve = 4.127E7, rho_inlet_sleeve = 2590.7) (degC), Point: 128Temperature (Cp_Al = 863.52, k_Al = 144.97, sigma_Al = 3.9535E7, rho_Al = 2634.6, Cp_inlet = 926.45, k_inlet = 156.54, sigma_inlet = 3.4076E7, rho_inlet = 2428.5, Cp_outlet = 839.85, k_outlet = 152.62, sigma_outlet = 3.7409E7, rho_outlet = 2595.7, Cp_outlet_sleeve = 843.02, k_outlet_sleeve = 163.89, sigma_outlet_sleeve = 3.467E7, rho_outlet_sleeve = 2493.4, Cp_inlet_sleeve = 913.62, k_inlet_sleeve = 158.33, sigma_inlet_sleeve = 4.127E7, rho_inlet_sleeve = 2590.7) (degC), Point: 134Temperature (Cp_Al = 863.52, k_Al = 144.97, sigma_Al = 3.9535E7, rho_Al = 2634.6, Cp_inlet = 926.45, k_inlet = 156.54, sigma_inlet = 3.4076E7, rho_inlet = 2428.5, Cp_outlet = 839.85, k_outlet = 152.62, sigma_outlet = 3.7409E7, rho_outlet = 2595.7, Cp_outlet_sleeve = 843.02, k_outlet_sleeve = 163.89, sigma_outlet_sleeve = 3.467E7, rho_outlet_sleeve = 2493.4, Cp_inlet_sleeve = 913.62, k_inlet_sleeve = 158.33, sigma_inlet_sleeve = 4.127E7, rho_inlet_sleeve = 2590.7) (degC), Point: 138Temperature (Cp_Al = 863.52, k_Al = 144.97, sigma_Al = 3.9535E7, rho_Al = 2634.6, Cp_inlet = 926.45, k_inlet = 156.54, sigma_inlet = 3.4076E7, rho_inlet = 2428.5, Cp_outlet = 839.85, k_outlet = 152.62, sigma_outlet = 3.7409E7, rho_outlet = 2595.7, Cp_outlet_sleeve = 843.02, k_outlet_sleeve = 163.89, sigma_outlet_sleeve = 3.467E7, rho_outlet_sleeve = 2493.4, Cp_inlet_sleeve = 913.62, k_inlet_sleeve = 158.33, sigma_inlet_sleeve = 4.127E7, rho_inlet_sleeve = 2590.7) (degC), Point: 151Temperature (Cp_Al = 863.52, k_Al = 144.97, sigma_Al = 3.9535E7, rho_Al = 2634.6, Cp_inlet = 926.45, k_inlet = 156.54, sigma_inlet = 3.4076E7, rho_inlet = 2428.5, Cp_outlet = 839.85, k_outlet = 152.62, sigma_outlet = 3.7409E7, rho_outlet = 2595.7, Cp_outlet_sleeve = 843.02, k_outlet_sleeve = 163.89, sigma_outlet_sleeve = 3.467E7, rho_outlet_sleeve = 2493.4, Cp_inlet_sleeve = 913.62, k_inlet_sleeve = 158.33, sigma_inlet_sleeve = 4.127E7, rho_inlet_sleeve = 2590.7) (degC), Point: 154Temperature (Cp_Al = 863.52, k_Al = 144.97, sigma_Al = 3.9535E7, rho_Al = 2634.6, Cp_inlet = 926.45, k_inlet = 156.54, sigma_inlet = 3.4076E7, rho_inlet = 2428.5, Cp_outlet = 839.85, k_outlet = 152.62, sigma_outlet = 3.7409E7, rho_outlet = 2595.7, Cp_outlet_sleeve = 843.02, k_outlet_sleeve = 163.89, sigma_outlet_sleeve = 3.467E7, rho_outlet_sleeve = 2493.4, Cp_inlet_sleeve = 913.62, k_inlet_sleeve = 158.33, sigma_inlet_sleeve = 4.127E7, rho_inlet_sleeve = 2590.7) (degC), Point: 159Temperature (Cp_Al = 863.52, k_Al = 144.97, sigma_Al = 3.9535E7, rho_Al = 2634.6, Cp_inlet = 926.45, k_inlet = 156.54, sigma_inlet = 3.4076E7, rho_inlet = 2428.5, Cp_outlet = 839.85, k_outlet = 152.62, sigma_outlet = 3.7409E7, rho_outlet = 2595.7, Cp_outlet_sleeve = 843.02, k_outlet_sleeve = 163.89, sigma_outlet_sleeve = 3.467E7, rho_outlet_sleeve = 2493.4, Cp_inlet_sleeve = 913.62, k_inlet_sleeve = 158.33, sigma_inlet_sleeve = 4.127E7, rho_inlet_sleeve = 2590.7) (degC), Point: 163Temperature (Cp_Al = 863.52, k_Al = 144.97, sigma_Al = 3.9535E7, rho_Al = 2634.6, Cp_inlet = 926.45, k_inlet = 156.54, sigma_inlet = 3.4076E7, rho_inlet = 2428.5, Cp_outlet = 839.85, k_outlet = 152.62, sigma_outlet = 3.7409E7, rho_outlet = 2595.7, Cp_outlet_sleeve = 843.02, k_outlet_sleeve = 163.89, sigma_outlet_sleeve = 3.467E7, rho_outlet_sleeve = 2493.4, Cp_inlet_sleeve = 913.62, k_inlet_sleeve = 158.33, sigma_inlet_sleeve = 4.127E7, rho_inlet_sleeve = 2590.7) (degC), Point: 167Temperature (Cp_Al = 863.52, k_Al = 144.97, sigma_Al = 3.9535E7, rho_Al = 2634.6, Cp_inlet = 926.45, k_inlet = 156.54, sigma_inlet = 3.4076E7, rho_inlet = 2428.5, Cp_outlet = 839.85, k_outlet = 152.62, sigma_outlet = 3.7409E7, rho_outlet = 2595.7, Cp_outlet_sleeve = 843.02, k_outlet_sleeve = 163.89, sigma_outlet_sleeve = 3.467E7, rho_outlet_sleeve = 2493.4, Cp_inlet_sleeve = 913.62, k_inlet_sleeve = 158.33, sigma_inlet_sleeve = 4.127E7, rho_inlet_sleeve = 2590.7) (degC), Point: 168Temperature (Cp_Al = 863.52, k_Al = 144.97, sigma_Al = 3.9535E7, rho_Al = 2634.6, Cp_inlet = 926.45, k_inlet = 156.54, sigma_inlet = 3.4076E7, rho_inlet = 2428.5, Cp_outlet = 839.85, k_outlet = 152.62, sigma_outlet = 3.7409E7, rho_outlet = 2595.7, Cp_outlet_sleeve = 843.02, k_outlet_sleeve = 163.89, sigma_outlet_sleeve = 3.467E7, rho_outlet_sleeve = 2493.4, Cp_inlet_sleeve = 913.62, k_inlet_sleeve = 158.33, sigma_inlet_sleeve = 4.127E7, rho_inlet_sleeve = 2590.7) (degC), Point: 172Temperature (Cp_Al = 863.52, k_Al = 144.97, sigma_Al = 3.9535E7, rho_Al = 2634.6, Cp_inlet = 926.45, k_inlet = 156.54, sigma_inlet = 3.4076E7, rho_inlet = 2428.5, Cp_outlet = 839.85, k_outlet = 152.62, sigma_outlet = 3.7409E7, rho_outlet = 2595.7, Cp_outlet_sleeve = 843.02, k_outlet_sleeve = 163.89, sigma_outlet_sleeve = 3.467E7, rho_outlet_sleeve = 2493.4, Cp_inlet_sleeve = 913.62, k_inlet_sleeve = 158.33, sigma_inlet_sleeve = 4.127E7, rho_inlet_sleeve = 2590.7) (degC), Point: 181Temperature (Cp_Al = 863.52, k_Al = 144.97, sigma_Al = 3.9535E7, rho_Al = 2634.6, Cp_inlet = 926.45, k_inlet = 156.54, sigma_inlet = 3.4076E7, rho_inlet = 2428.5, Cp_outlet = 839.85, k_outlet = 152.62, sigma_outlet = 3.7409E7, rho_outlet = 2595.7, Cp_outlet_sleeve = 843.02, k_outlet_sleeve = 163.89, sigma_outlet_sleeve = 3.467E7, rho_outlet_sleeve = 2493.4, Cp_inlet_sleeve = 913.62, k_inlet_sleeve = 158.33, sigma_inlet_sleeve = 4.127E7, rho_inlet_sleeve = 2590.7) (degC), Point: 201Temperature (Cp_Al = 863.52, k_Al = 144.97, sigma_Al = 3.9535E7, rho_Al = 2634.6, Cp_inlet = 926.45, k_inlet = 156.54, sigma_inlet = 3.4076E7, rho_inlet = 2428.5, Cp_outlet = 839.85, k_outlet = 152.62, sigma_outlet = 3.7409E7, rho_outlet = 2595.7, Cp_outlet_sleeve = 843.02, k_outlet_sleeve = 163.89, sigma_outlet_sleeve = 3.467E7, rho_outlet_sleeve = 2493.4, Cp_inlet_sleeve = 913.62, k_inlet_sleeve = 158.33, sigma_inlet_sleeve = 4.127E7, rho_inlet_sleeve = 2590.7) (degC), Point: 210Temperature (Cp_Al = 863.52, k_Al = 144.97, sigma_Al = 3.9535E7, rho_Al = 2634.6, Cp_inlet = 926.45, k_inlet = 156.54, sigma_inlet = 3.4076E7, rho_inlet = 2428.5, Cp_outlet = 839.85, k_outlet = 152.62, sigma_outlet = 3.7409E7, rho_outlet = 2595.7, Cp_outlet_sleeve = 843.02, k_outlet_sleeve = 163.89, sigma_outlet_sleeve = 3.467E7, rho_outlet_sleeve = 2493.4, Cp_inlet_sleeve = 913.62, k_inlet_sleeve = 158.33, sigma_inlet_sleeve = 4.127E7, rho_inlet_sleeve = 2590.7) (degC), Point: 213Temperature (Cp_Al = 863.52, k_Al = 144.97, sigma_Al = 3.9535E7, rho_Al = 2634.6, Cp_inlet = 926.45, k_inlet = 156.54, sigma_inlet = 3.4076E7, rho_inlet = 2428.5, Cp_outlet = 839.85, k_outlet = 152.62, sigma_outlet = 3.7409E7, rho_outlet = 2595.7, Cp_outlet_sleeve = 843.02, k_outlet_sleeve = 163.89, sigma_outlet_sleeve = 3.467E7, rho_outlet_sleeve = 2493.4, Cp_inlet_sleeve = 913.62, k_inlet_sleeve = 158.33, sigma_inlet_sleeve = 4.127E7, rho_inlet_sleeve = 2590.7) (degC), Point: 215Temperature (Cp_Al = 863.52, k_Al = 144.97, sigma_Al = 3.9535E7, rho_Al = 2634.6, Cp_inlet = 926.45, k_inlet = 156.54, sigma_inlet = 3.4076E7, rho_inlet = 2428.5, Cp_outlet = 839.85, k_outlet = 152.62, sigma_outlet = 3.7409E7, rho_outlet = 2595.7, Cp_outlet_sleeve = 843.02, k_outlet_sleeve = 163.89, sigma_outlet_sleeve = 3.467E7, rho_outlet_sleeve = 2493.4, Cp_inlet_sleeve = 913.62, k_inlet_sleeve = 158.33, sigma_inlet_sleeve = 4.127E7, rho_inlet_sleeve = 2590.7) (degC), Point: 229Temperature (Cp_Al = 863.52, k_Al = 144.97, sigma_Al = 3.9535E7, rho_Al = 2634.6, Cp_inlet = 926.45, k_inlet = 156.54, sigma_inlet = 3.4076E7, rho_inlet = 2428.5, Cp_outlet = 839.85, k_outlet = 152.62, sigma_outlet = 3.7409E7, rho_outlet = 2595.7, Cp_outlet_sleeve = 843.02, k_outlet_sleeve = 163.89, sigma_outlet_sleeve = 3.467E7, rho_outlet_sleeve = 2493.4, Cp_inlet_sleeve = 913.62, k_inlet_sleeve = 158.33, sigma_inlet_sleeve = 4.127E7, rho_inlet_sleeve = 2590.7) (degC), Point: 232Temperature (Cp_Al = 863.52, k_Al = 144.97, sigma_Al = 3.9535E7, rho_Al = 2634.6, Cp_inlet = 926.45, k_inlet = 156.54, sigma_inlet = 3.4076E7, rho_inlet = 2428.5, Cp_outlet = 839.85, k_outlet = 152.62, sigma_outlet = 3.7409E7, rho_outlet = 2595.7, Cp_outlet_sleeve = 843.02, k_outlet_sleeve = 163.89, sigma_outlet_sleeve = 3.467E7, rho_outlet_sleeve = 2493.4, Cp_inlet_sleeve = 913.62, k_inlet_sleeve = 158.33, sigma_inlet_sleeve = 4.127E7, rho_inlet_sleeve = 2590.7) (degC), Point: 239Temperature (Cp_Al = 863.52, k_Al = 144.97, sigma_Al = 3.9535E7, rho_Al = 2634.6, Cp_inlet = 926.45, k_inlet = 156.54, sigma_inlet = 3.4076E7, rho_inlet = 2428.5, Cp_outlet = 839.85, k_outlet = 152.62, sigma_outlet = 3.7409E7, rho_outlet = 2595.7, Cp_outlet_sleeve = 843.02, k_outlet_sleeve = 163.89, sigma_outlet_sleeve = 3.467E7, rho_outlet_sleeve = 2493.4, Cp_inlet_sleeve = 913.62, k_inlet_sleeve = 158.33, sigma_inlet_sleeve = 4.127E7, rho_inlet_sleeve = 2590.7) (degC), Point: 252Temperature (Cp_Al = 863.52, k_Al = 144.97, sigma_Al = 3.9535E7, rho_Al = 2634.6, Cp_inlet = 926.45, k_inlet = 156.54, sigma_inlet = 3.4076E7, rho_inlet = 2428.5, Cp_outlet = 839.85, k_outlet = 152.62, sigma_outlet = 3.7409E7, rho_outlet = 2595.7, Cp_outlet_sleeve = 843.02, k_outlet_sleeve = 163.89, sigma_outlet_sleeve = 3.467E7, rho_outlet_sleeve = 2493.4, Cp_inlet_sleeve = 913.62, k_inlet_sleeve = 158.33, sigma_inlet_sleeve = 4.127E7, rho_inlet_sleeve = 2590.7) (degC), Point: 261Temperature (Cp_Al = 863.52, k_Al = 144.97, sigma_Al = 3.9535E7, rho_Al = 2634.6, Cp_inlet = 926.45, k_inlet = 156.54, sigma_inlet = 3.4076E7, rho_inlet = 2428.5, Cp_outlet = 839.85, k_outlet = 152.62, sigma_outlet = 3.7409E7, rho_outlet = 2595.7, Cp_outlet_sleeve = 843.02, k_outlet_sleeve = 163.89, sigma_outlet_sleeve = 3.467E7, rho_outlet_sleeve = 2493.4, Cp_inlet_sleeve = 913.62, k_inlet_sleeve = 158.33, sigma_inlet_sleeve = 4.127E7, rho_inlet_sleeve = 2590.7) (degC), Point: 270Temperature (Cp_Al = 863.52, k_Al = 144.97, sigma_Al = 3.9535E7, rho_Al = 2634.6, Cp_inlet = 926.45, k_inlet = 156.54, sigma_inlet = 3.4076E7, rho_inlet = 2428.5, Cp_outlet = 839.85, k_outlet = 152.62, sigma_outlet = 3.7409E7, rho_outlet = 2595.7, Cp_outlet_sleeve = 843.02, k_outlet_sleeve = 163.89, sigma_outlet_sleeve = 3.467E7, rho_outlet_sleeve = 2493.4, Cp_inlet_sleeve = 913.62, k_inlet_sleeve = 158.33, sigma_inlet_sleeve = 4.127E7, rho_inlet_sleeve = 2590.7) (degC), Point: 273Temperature (Cp_Al = 863.52, k_Al = 144.97, sigma_Al = 3.9535E7, rho_Al = 2634.6, Cp_inlet = 926.45, k_inlet = 156.54, sigma_inlet = 3.4076E7, rho_inlet = 2428.5, Cp_outlet = 839.85, k_outlet = 152.62, sigma_outlet = 3.7409E7, rho_outlet = 2595.7, Cp_outlet_sleeve = 843.02, k_outlet_sleeve = 163.89, sigma_outlet_sleeve = 3.467E7, rho_outlet_sleeve = 2493.4, Cp_inlet_sleeve = 913.62, k_inlet_sleeve = 158.33, sigma_inlet_sleeve = 4.127E7, rho_inlet_sleeve = 2590.7) (degC), Point: 275
0                        21.641176305430747       21.013108402468845       21.1321858469762         21.008698822321207       21.01378139646124        21.108320629316268       21.008736911751612       21.026394538789532       21.001437134944922       21.024624464991234       21.001228239136765       21.000640510212122       21.00951207190326        21.00010966812073        21.007834467761825       21.021082283888177       21.00005465304639        21.0115891826282         21.00073590512875        21.000298017198418       21.001778557284013       21.000174224369232       21.000264870849946       21.008724285420897       21.118824872944856       21.013229815547845       21.556657738921217       21.008588546613964       21.145096219314723       21.016254626632588       21.713243384948555
3                        311.64270225198004       277.8436304142383        287.4619380141022        282.8270092992442        263.4295172860617        276.0735706095404        274.3625919754853        262.6899864549879        257.88880311419746       268.7143854527218        270.7299487810727        262.4838661098281        259.8464860648322        247.32711337048318       252.17015498366368       244.92266513332083       240.38270485181988       249.4008722804016        250.88845704819846       244.57333969083402       243.66040538576078       237.08883019871098       239.8711477595058        276.37618180918184       278.5236990416239        264.99055796678465       298.3236138502076        284.372037671215         289.2552726724332        276.9963945460728        315.6930987562364
6                        436.62760145025686       401.3150731662755        414.7357476929342        410.83741107953676       387.19270195253637       404.76258171987956       404.1070124970008        388.2688173542233        381.4952380631303        397.29997716215587       400.3762803312354        392.11179854942156       388.41738310509254       370.9103366891194        377.71673727266614       368.6131714471601        362.48568723297876       375.49994350555687       377.7625844634521        371.41538579463554       369.78993756776845       359.40823722461516       363.71937811741475       405.91619911838734       406.9812723073725        388.41509253721836       423.7386416959549        409.9698098281482        414.09707256557135       397.78424752933745       438.1104141676816
9                        510.0473499657378        473.83434981735616       489.96594518563063       486.8109782830762        457.6395840690328        478.48389866623745       478.737835930334         459.73908021946545       451.84727781511003       470.9635094975994        474.952996501563         466.67985644142095       462.07313494377263       441.250165607472         449.1657331723866        441.1531127598613        434.07781065625863       449.93403292328617       452.970041081629         446.7442759530211        444.37756620137554       431.25091957844563       436.47828550260124       480.43928595659736       480.5711515656741        458.6585541487798        495.1100313457723        484.505469946497         487.86015463155843       468.641880071587         509.948555441488
12                       560.4316705032242        523.6120718558678        541.7313289055077        539.1871167990455        504.9702873658249        528.0792592814867        529.0261134566096        507.7223517318388        499.11691982190507       520.5228242524536        525.2077696017683        516.9324883697612        511.6302916397773        488.5139953196026        497.13657401132355       491.01589873290493       483.30256485872394       501.23605690849024       504.9049604321193        498.7627181875057        495.77686600986044       480.6202072425539        486.46795336730304       530.6654754703221        530.0862064620958        505.8602178335233        543.0312437654545        536.0668578208815        538.779226564525         517.4212727320289        559.391043951933
15                       598.5718436522252        561.309502146415         580.9613640123704        578.9186818854158        540.3163523849994        565.0731656460757        566.5520280424738        543.5201887935949        534.421702266477         557.4929691448367        562.7117369088271        554.4377450961156        548.601419780576         523.8168760447554        532.9275423699559        528.8249746717728        520.6471912826646        540.1770487609697        544.3642970209572        538.3049476199421        534.8051696459876        518.0733211225197        524.3755253656361        568.154253315747         567.028966343568         541.1210007049194        578.7888348973435        575.3272120231866        577.507964675267         554.4963756745642        596.9504113796771
18                       629.0466799404297        591.4472630899559        612.3226615650394        610.7003423726181        568.2500174135994        594.2487792932933        596.1470811626443        571.77959195289          562.327084638351         586.6528061546517        592.2923183957913        584.0211842447906        577.763672526286         551.7223590212226        561.1831800726941        559.0842872464628        550.5540589863506        571.3541649740317        575.9749146126592        569.9972819973716        566.0635273385478        548.0685454381697        554.7175240291294        597.7275626091417        596.1718399401817        568.9975869270082        607.0217757885647        606.8426720220674        608.5755749567697        584.2430646493297        627.0652523680644
21                       655.0560074425456        617.1844767812347        639.0787734055136        637.8168487841824        591.9506970436889        618.9394036961106        621.1820775309594        595.7324654416645        586.0075554667803        611.3325142304038        617.3173595213276        609.0496445821245        602.446329450186         575.4038808388041        585.1339422393398        584.9442737068758        576.1305378983234        597.9852632644157        602.976985099975         597.0768922510529        592.7696769660553        573.7209660328958        580.6498948051205        622.7496492451443        620.8406412496893        592.6584199546185        630.9564577409395        633.8041486531527        635.1524011921401        609.7216981908148        652.8399252803937
24                       678.2850120325378        640.1850475525262        662.951094072209         662.0026450759034        613.0905024684896        640.9039517517782        643.4390648870158        617.0786693466889        607.132412981469         633.2892531691009        639.5672572019002        631.3030655445252        624.4061377586637        596.5302203371           606.4789393893853        608.0643911194346        599.0134737427742        621.7681058852135        627.0819745996728        621.2530781372801        616.6205812315627        596.6703501735776        603.8339542867053        644.999030934502         642.7901569047549        613.7694239439444        652.2896755158226        657.8970686964235        658.9108615948145        632.543353273135         675.9088158463381
27                       699.5733576454121        661.2782879798632        684.7983078300732        684.1237243753882        632.5102994356336        661.0276520421844        663.8156908926411        636.6725901188832        626.5409486515032        653.4072826548504        659.9387539702514        651.677983320895         644.5271667495223        615.9404100988909        626.0721818420909        629.2710342689645        620.018168338244         643.5493198291019        649.1442229776995        643.3795244364825        638.4627754009157        617.7334512838937        625.0970986978633        665.3714625199507        662.9033761933205        633.1680332944783        671.874142721927         679.9630069372624        680.68496048793          653.5099030734337        697.0854092805893
