% Model:              brazing.mph
% Version:            COMSOL 5.3.0.223
% Date:               Oct 24 2018, 05:04
% Table:              Table 3 - 
% Time (s)               Temperature (Cp_Al = 884.72, k_Al = 131.5, sigma_Al = 4.4779E7, rho_Al = 2474.4, Cp_inlet = 813.85, k_inlet = 159.04, sigma_inlet = 3.0864E7, rho_inlet = 2361.6, Cp_outlet = 893.3, k_outlet = 143.86, sigma_outlet = 4.0331E7, rho_outlet = 2335.7, Cp_outlet_sleeve = 760.28, k_outlet_sleeve = 160.99, sigma_outlet_sleeve = 3.4895E7, rho_outlet_sleeve = 2477, Cp_inlet_sleeve = 893.93, k_inlet_sleeve = 141.26, sigma_inlet_sleeve = 4.8693E7, rho_inlet_sleeve = 2709.3) (degC), Point: 55Temperature (Cp_Al = 884.72, k_Al = 131.5, sigma_Al = 4.4779E7, rho_Al = 2474.4, Cp_inlet = 813.85, k_inlet = 159.04, sigma_inlet = 3.0864E7, rho_inlet = 2361.6, Cp_outlet = 893.3, k_outlet = 143.86, sigma_outlet = 4.0331E7, rho_outlet = 2335.7, Cp_outlet_sleeve = 760.28, k_outlet_sleeve = 160.99, sigma_outlet_sleeve = 3.4895E7, rho_outlet_sleeve = 2477, Cp_inlet_sleeve = 893.93, k_inlet_sleeve = 141.26, sigma_inlet_sleeve = 4.8693E7, rho_inlet_sleeve = 2709.3) (degC), Point: 56Temperature (Cp_Al = 884.72, k_Al = 131.5, sigma_Al = 4.4779E7, rho_Al = 2474.4, Cp_inlet = 813.85, k_inlet = 159.04, sigma_inlet = 3.0864E7, rho_inlet = 2361.6, Cp_outlet = 893.3, k_outlet = 143.86, sigma_outlet = 4.0331E7, rho_outlet = 2335.7, Cp_outlet_sleeve = 760.28, k_outlet_sleeve = 160.99, sigma_outlet_sleeve = 3.4895E7, rho_outlet_sleeve = 2477, Cp_inlet_sleeve = 893.93, k_inlet_sleeve = 141.26, sigma_inlet_sleeve = 4.8693E7, rho_inlet_sleeve = 2709.3) (degC), Point: 60Temperature (Cp_Al = 884.72, k_Al = 131.5, sigma_Al = 4.4779E7, rho_Al = 2474.4, Cp_inlet = 813.85, k_inlet = 159.04, sigma_inlet = 3.0864E7, rho_inlet = 2361.6, Cp_outlet = 893.3, k_outlet = 143.86, sigma_outlet = 4.0331E7, rho_outlet = 2335.7, Cp_outlet_sleeve = 760.28, k_outlet_sleeve = 160.99, sigma_outlet_sleeve = 3.4895E7, rho_outlet_sleeve = 2477, Cp_inlet_sleeve = 893.93, k_inlet_sleeve = 141.26, sigma_inlet_sleeve = 4.8693E7, rho_inlet_sleeve = 2709.3) (degC), Point: 69Temperature (Cp_Al = 884.72, k_Al = 131.5, sigma_Al = 4.4779E7, rho_Al = 2474.4, Cp_inlet = 813.85, k_inlet = 159.04, sigma_inlet = 3.0864E7, rho_inlet = 2361.6, Cp_outlet = 893.3, k_outlet = 143.86, sigma_outlet = 4.0331E7, rho_outlet = 2335.7, Cp_outlet_sleeve = 760.28, k_outlet_sleeve = 160.99, sigma_outlet_sleeve = 3.4895E7, rho_outlet_sleeve = 2477, Cp_inlet_sleeve = 893.93, k_inlet_sleeve = 141.26, sigma_inlet_sleeve = 4.8693E7, rho_inlet_sleeve = 2709.3) (degC), Point: 90Temperature (Cp_Al = 884.72, k_Al = 131.5, sigma_Al = 4.4779E7, rho_Al = 2474.4, Cp_inlet = 813.85, k_inlet = 159.04, sigma_inlet = 3.0864E7, rho_inlet = 2361.6, Cp_outlet = 893.3, k_outlet = 143.86, sigma_outlet = 4.0331E7, rho_outlet = 2335.7, Cp_outlet_sleeve = 760.28, k_outlet_sleeve = 160.99, sigma_outlet_sleeve = 3.4895E7, rho_outlet_sleeve = 2477, Cp_inlet_sleeve = 893.93, k_inlet_sleeve = 141.26, sigma_inlet_sleeve = 4.8693E7, rho_inlet_sleeve = 2709.3) (degC), Point: 98Temperature (Cp_Al = 884.72, k_Al = 131.5, sigma_Al = 4.4779E7, rho_Al = 2474.4, Cp_inlet = 813.85, k_inlet = 159.04, sigma_inlet = 3.0864E7, rho_inlet = 2361.6, Cp_outlet = 893.3, k_outlet = 143.86, sigma_outlet = 4.0331E7, rho_outlet = 2335.7, Cp_outlet_sleeve = 760.28, k_outlet_sleeve = 160.99, sigma_outlet_sleeve = 3.4895E7, rho_outlet_sleeve = 2477, Cp_inlet_sleeve = 893.93, k_inlet_sleeve = 141.26, sigma_inlet_sleeve = 4.8693E7, rho_inlet_sleeve = 2709.3) (degC), Point: 102Temperature (Cp_Al = 884.72, k_Al = 131.5, sigma_Al = 4.4779E7, rho_Al = 2474.4, Cp_inlet = 813.85, k_inlet = 159.04, sigma_inlet = 3.0864E7, rho_inlet = 2361.6, Cp_outlet = 893.3, k_outlet = 143.86, sigma_outlet = 4.0331E7, rho_outlet = 2335.7, Cp_outlet_sleeve = 760.28, k_outlet_sleeve = 160.99, sigma_outlet_sleeve = 3.4895E7, rho_outlet_sleeve = 2477, Cp_inlet_sleeve = 893.93, k_inlet_sleeve = 141.26, sigma_inlet_sleeve = 4.8693E7, rho_inlet_sleeve = 2709.3) (degC), Point: 127Temperature (Cp_Al = 884.72, k_Al = 131.5, sigma_Al = 4.4779E7, rho_Al = 2474.4, Cp_inlet = 813.85, k_inlet = 159.04, sigma_inlet = 3.0864E7, rho_inlet = 2361.6, Cp_outlet = 893.3, k_outlet = 143.86, sigma_outlet = 4.0331E7, rho_outlet = 2335.7, Cp_outlet_sleeve = 760.28, k_outlet_sleeve = 160.99, sigma_outlet_sleeve = 3.4895E7, rho_outlet_sleeve = 2477, Cp_inlet_sleeve = 893.93, k_inlet_sleeve = 141.26, sigma_inlet_sleeve = 4.8693E7, rho_inlet_sleeve = 2709.3) (degC), Point: 128Temperature (Cp_Al = 884.72, k_Al = 131.5, sigma_Al = 4.4779E7, rho_Al = 2474.4, Cp_inlet = 813.85, k_inlet = 159.04, sigma_inlet = 3.0864E7, rho_inlet = 2361.6, Cp_outlet = 893.3, k_outlet = 143.86, sigma_outlet = 4.0331E7, rho_outlet = 2335.7, Cp_outlet_sleeve = 760.28, k_outlet_sleeve = 160.99, sigma_outlet_sleeve = 3.4895E7, rho_outlet_sleeve = 2477, Cp_inlet_sleeve = 893.93, k_inlet_sleeve = 141.26, sigma_inlet_sleeve = 4.8693E7, rho_inlet_sleeve = 2709.3) (degC), Point: 134Temperature (Cp_Al = 884.72, k_Al = 131.5, sigma_Al = 4.4779E7, rho_Al = 2474.4, Cp_inlet = 813.85, k_inlet = 159.04, sigma_inlet = 3.0864E7, rho_inlet = 2361.6, Cp_outlet = 893.3, k_outlet = 143.86, sigma_outlet = 4.0331E7, rho_outlet = 2335.7, Cp_outlet_sleeve = 760.28, k_outlet_sleeve = 160.99, sigma_outlet_sleeve = 3.4895E7, rho_outlet_sleeve = 2477, Cp_inlet_sleeve = 893.93, k_inlet_sleeve = 141.26, sigma_inlet_sleeve = 4.8693E7, rho_inlet_sleeve = 2709.3) (degC), Point: 138Temperature (Cp_Al = 884.72, k_Al = 131.5, sigma_Al = 4.4779E7, rho_Al = 2474.4, Cp_inlet = 813.85, k_inlet = 159.04, sigma_inlet = 3.0864E7, rho_inlet = 2361.6, Cp_outlet = 893.3, k_outlet = 143.86, sigma_outlet = 4.0331E7, rho_outlet = 2335.7, Cp_outlet_sleeve = 760.28, k_outlet_sleeve = 160.99, sigma_outlet_sleeve = 3.4895E7, rho_outlet_sleeve = 2477, Cp_inlet_sleeve = 893.93, k_inlet_sleeve = 141.26, sigma_inlet_sleeve = 4.8693E7, rho_inlet_sleeve = 2709.3) (degC), Point: 151Temperature (Cp_Al = 884.72, k_Al = 131.5, sigma_Al = 4.4779E7, rho_Al = 2474.4, Cp_inlet = 813.85, k_inlet = 159.04, sigma_inlet = 3.0864E7, rho_inlet = 2361.6, Cp_outlet = 893.3, k_outlet = 143.86, sigma_outlet = 4.0331E7, rho_outlet = 2335.7, Cp_outlet_sleeve = 760.28, k_outlet_sleeve = 160.99, sigma_outlet_sleeve = 3.4895E7, rho_outlet_sleeve = 2477, Cp_inlet_sleeve = 893.93, k_inlet_sleeve = 141.26, sigma_inlet_sleeve = 4.8693E7, rho_inlet_sleeve = 2709.3) (degC), Point: 154Temperature (Cp_Al = 884.72, k_Al = 131.5, sigma_Al = 4.4779E7, rho_Al = 2474.4, Cp_inlet = 813.85, k_inlet = 159.04, sigma_inlet = 3.0864E7, rho_inlet = 2361.6, Cp_outlet = 893.3, k_outlet = 143.86, sigma_outlet = 4.0331E7, rho_outlet = 2335.7, Cp_outlet_sleeve = 760.28, k_outlet_sleeve = 160.99, sigma_outlet_sleeve = 3.4895E7, rho_outlet_sleeve = 2477, Cp_inlet_sleeve = 893.93, k_inlet_sleeve = 141.26, sigma_inlet_sleeve = 4.8693E7, rho_inlet_sleeve = 2709.3) (degC), Point: 159Temperature (Cp_Al = 884.72, k_Al = 131.5, sigma_Al = 4.4779E7, rho_Al = 2474.4, Cp_inlet = 813.85, k_inlet = 159.04, sigma_inlet = 3.0864E7, rho_inlet = 2361.6, Cp_outlet = 893.3, k_outlet = 143.86, sigma_outlet = 4.0331E7, rho_outlet = 2335.7, Cp_outlet_sleeve = 760.28, k_outlet_sleeve = 160.99, sigma_outlet_sleeve = 3.4895E7, rho_outlet_sleeve = 2477, Cp_inlet_sleeve = 893.93, k_inlet_sleeve = 141.26, sigma_inlet_sleeve = 4.8693E7, rho_inlet_sleeve = 2709.3) (degC), Point: 163Temperature (Cp_Al = 884.72, k_Al = 131.5, sigma_Al = 4.4779E7, rho_Al = 2474.4, Cp_inlet = 813.85, k_inlet = 159.04, sigma_inlet = 3.0864E7, rho_inlet = 2361.6, Cp_outlet = 893.3, k_outlet = 143.86, sigma_outlet = 4.0331E7, rho_outlet = 2335.7, Cp_outlet_sleeve = 760.28, k_outlet_sleeve = 160.99, sigma_outlet_sleeve = 3.4895E7, rho_outlet_sleeve = 2477, Cp_inlet_sleeve = 893.93, k_inlet_sleeve = 141.26, sigma_inlet_sleeve = 4.8693E7, rho_inlet_sleeve = 2709.3) (degC), Point: 167Temperature (Cp_Al = 884.72, k_Al = 131.5, sigma_Al = 4.4779E7, rho_Al = 2474.4, Cp_inlet = 813.85, k_inlet = 159.04, sigma_inlet = 3.0864E7, rho_inlet = 2361.6, Cp_outlet = 893.3, k_outlet = 143.86, sigma_outlet = 4.0331E7, rho_outlet = 2335.7, Cp_outlet_sleeve = 760.28, k_outlet_sleeve = 160.99, sigma_outlet_sleeve = 3.4895E7, rho_outlet_sleeve = 2477, Cp_inlet_sleeve = 893.93, k_inlet_sleeve = 141.26, sigma_inlet_sleeve = 4.8693E7, rho_inlet_sleeve = 2709.3) (degC), Point: 168Temperature (Cp_Al = 884.72, k_Al = 131.5, sigma_Al = 4.4779E7, rho_Al = 2474.4, Cp_inlet = 813.85, k_inlet = 159.04, sigma_inlet = 3.0864E7, rho_inlet = 2361.6, Cp_outlet = 893.3, k_outlet = 143.86, sigma_outlet = 4.0331E7, rho_outlet = 2335.7, Cp_outlet_sleeve = 760.28, k_outlet_sleeve = 160.99, sigma_outlet_sleeve = 3.4895E7, rho_outlet_sleeve = 2477, Cp_inlet_sleeve = 893.93, k_inlet_sleeve = 141.26, sigma_inlet_sleeve = 4.8693E7, rho_inlet_sleeve = 2709.3) (degC), Point: 172Temperature (Cp_Al = 884.72, k_Al = 131.5, sigma_Al = 4.4779E7, rho_Al = 2474.4, Cp_inlet = 813.85, k_inlet = 159.04, sigma_inlet = 3.0864E7, rho_inlet = 2361.6, Cp_outlet = 893.3, k_outlet = 143.86, sigma_outlet = 4.0331E7, rho_outlet = 2335.7, Cp_outlet_sleeve = 760.28, k_outlet_sleeve = 160.99, sigma_outlet_sleeve = 3.4895E7, rho_outlet_sleeve = 2477, Cp_inlet_sleeve = 893.93, k_inlet_sleeve = 141.26, sigma_inlet_sleeve = 4.8693E7, rho_inlet_sleeve = 2709.3) (degC), Point: 181Temperature (Cp_Al = 884.72, k_Al = 131.5, sigma_Al = 4.4779E7, rho_Al = 2474.4, Cp_inlet = 813.85, k_inlet = 159.04, sigma_inlet = 3.0864E7, rho_inlet = 2361.6, Cp_outlet = 893.3, k_outlet = 143.86, sigma_outlet = 4.0331E7, rho_outlet = 2335.7, Cp_outlet_sleeve = 760.28, k_outlet_sleeve = 160.99, sigma_outlet_sleeve = 3.4895E7, rho_outlet_sleeve = 2477, Cp_inlet_sleeve = 893.93, k_inlet_sleeve = 141.26, sigma_inlet_sleeve = 4.8693E7, rho_inlet_sleeve = 2709.3) (degC), Point: 201Temperature (Cp_Al = 884.72, k_Al = 131.5, sigma_Al = 4.4779E7, rho_Al = 2474.4, Cp_inlet = 813.85, k_inlet = 159.04, sigma_inlet = 3.0864E7, rho_inlet = 2361.6, Cp_outlet = 893.3, k_outlet = 143.86, sigma_outlet = 4.0331E7, rho_outlet = 2335.7, Cp_outlet_sleeve = 760.28, k_outlet_sleeve = 160.99, sigma_outlet_sleeve = 3.4895E7, rho_outlet_sleeve = 2477, Cp_inlet_sleeve = 893.93, k_inlet_sleeve = 141.26, sigma_inlet_sleeve = 4.8693E7, rho_inlet_sleeve = 2709.3) (degC), Point: 210Temperature (Cp_Al = 884.72, k_Al = 131.5, sigma_Al = 4.4779E7, rho_Al = 2474.4, Cp_inlet = 813.85, k_inlet = 159.04, sigma_inlet = 3.0864E7, rho_inlet = 2361.6, Cp_outlet = 893.3, k_outlet = 143.86, sigma_outlet = 4.0331E7, rho_outlet = 2335.7, Cp_outlet_sleeve = 760.28, k_outlet_sleeve = 160.99, sigma_outlet_sleeve = 3.4895E7, rho_outlet_sleeve = 2477, Cp_inlet_sleeve = 893.93, k_inlet_sleeve = 141.26, sigma_inlet_sleeve = 4.8693E7, rho_inlet_sleeve = 2709.3) (degC), Point: 213Temperature (Cp_Al = 884.72, k_Al = 131.5, sigma_Al = 4.4779E7, rho_Al = 2474.4, Cp_inlet = 813.85, k_inlet = 159.04, sigma_inlet = 3.0864E7, rho_inlet = 2361.6, Cp_outlet = 893.3, k_outlet = 143.86, sigma_outlet = 4.0331E7, rho_outlet = 2335.7, Cp_outlet_sleeve = 760.28, k_outlet_sleeve = 160.99, sigma_outlet_sleeve = 3.4895E7, rho_outlet_sleeve = 2477, Cp_inlet_sleeve = 893.93, k_inlet_sleeve = 141.26, sigma_inlet_sleeve = 4.8693E7, rho_inlet_sleeve = 2709.3) (degC), Point: 215Temperature (Cp_Al = 884.72, k_Al = 131.5, sigma_Al = 4.4779E7, rho_Al = 2474.4, Cp_inlet = 813.85, k_inlet = 159.04, sigma_inlet = 3.0864E7, rho_inlet = 2361.6, Cp_outlet = 893.3, k_outlet = 143.86, sigma_outlet = 4.0331E7, rho_outlet = 2335.7, Cp_outlet_sleeve = 760.28, k_outlet_sleeve = 160.99, sigma_outlet_sleeve = 3.4895E7, rho_outlet_sleeve = 2477, Cp_inlet_sleeve = 893.93, k_inlet_sleeve = 141.26, sigma_inlet_sleeve = 4.8693E7, rho_inlet_sleeve = 2709.3) (degC), Point: 229Temperature (Cp_Al = 884.72, k_Al = 131.5, sigma_Al = 4.4779E7, rho_Al = 2474.4, Cp_inlet = 813.85, k_inlet = 159.04, sigma_inlet = 3.0864E7, rho_inlet = 2361.6, Cp_outlet = 893.3, k_outlet = 143.86, sigma_outlet = 4.0331E7, rho_outlet = 2335.7, Cp_outlet_sleeve = 760.28, k_outlet_sleeve = 160.99, sigma_outlet_sleeve = 3.4895E7, rho_outlet_sleeve = 2477, Cp_inlet_sleeve = 893.93, k_inlet_sleeve = 141.26, sigma_inlet_sleeve = 4.8693E7, rho_inlet_sleeve = 2709.3) (degC), Point: 232Temperature (Cp_Al = 884.72, k_Al = 131.5, sigma_Al = 4.4779E7, rho_Al = 2474.4, Cp_inlet = 813.85, k_inlet = 159.04, sigma_inlet = 3.0864E7, rho_inlet = 2361.6, Cp_outlet = 893.3, k_outlet = 143.86, sigma_outlet = 4.0331E7, rho_outlet = 2335.7, Cp_outlet_sleeve = 760.28, k_outlet_sleeve = 160.99, sigma_outlet_sleeve = 3.4895E7, rho_outlet_sleeve = 2477, Cp_inlet_sleeve = 893.93, k_inlet_sleeve = 141.26, sigma_inlet_sleeve = 4.8693E7, rho_inlet_sleeve = 2709.3) (degC), Point: 239Temperature (Cp_Al = 884.72, k_Al = 131.5, sigma_Al = 4.4779E7, rho_Al = 2474.4, Cp_inlet = 813.85, k_inlet = 159.04, sigma_inlet = 3.0864E7, rho_inlet = 2361.6, Cp_outlet = 893.3, k_outlet = 143.86, sigma_outlet = 4.0331E7, rho_outlet = 2335.7, Cp_outlet_sleeve = 760.28, k_outlet_sleeve = 160.99, sigma_outlet_sleeve = 3.4895E7, rho_outlet_sleeve = 2477, Cp_inlet_sleeve = 893.93, k_inlet_sleeve = 141.26, sigma_inlet_sleeve = 4.8693E7, rho_inlet_sleeve = 2709.3) (degC), Point: 252Temperature (Cp_Al = 884.72, k_Al = 131.5, sigma_Al = 4.4779E7, rho_Al = 2474.4, Cp_inlet = 813.85, k_inlet = 159.04, sigma_inlet = 3.0864E7, rho_inlet = 2361.6, Cp_outlet = 893.3, k_outlet = 143.86, sigma_outlet = 4.0331E7, rho_outlet = 2335.7, Cp_outlet_sleeve = 760.28, k_outlet_sleeve = 160.99, sigma_outlet_sleeve = 3.4895E7, rho_outlet_sleeve = 2477, Cp_inlet_sleeve = 893.93, k_inlet_sleeve = 141.26, sigma_inlet_sleeve = 4.8693E7, rho_inlet_sleeve = 2709.3) (degC), Point: 261Temperature (Cp_Al = 884.72, k_Al = 131.5, sigma_Al = 4.4779E7, rho_Al = 2474.4, Cp_inlet = 813.85, k_inlet = 159.04, sigma_inlet = 3.0864E7, rho_inlet = 2361.6, Cp_outlet = 893.3, k_outlet = 143.86, sigma_outlet = 4.0331E7, rho_outlet = 2335.7, Cp_outlet_sleeve = 760.28, k_outlet_sleeve = 160.99, sigma_outlet_sleeve = 3.4895E7, rho_outlet_sleeve = 2477, Cp_inlet_sleeve = 893.93, k_inlet_sleeve = 141.26, sigma_inlet_sleeve = 4.8693E7, rho_inlet_sleeve = 2709.3) (degC), Point: 270Temperature (Cp_Al = 884.72, k_Al = 131.5, sigma_Al = 4.4779E7, rho_Al = 2474.4, Cp_inlet = 813.85, k_inlet = 159.04, sigma_inlet = 3.0864E7, rho_inlet = 2361.6, Cp_outlet = 893.3, k_outlet = 143.86, sigma_outlet = 4.0331E7, rho_outlet = 2335.7, Cp_outlet_sleeve = 760.28, k_outlet_sleeve = 160.99, sigma_outlet_sleeve = 3.4895E7, rho_outlet_sleeve = 2477, Cp_inlet_sleeve = 893.93, k_inlet_sleeve = 141.26, sigma_inlet_sleeve = 4.8693E7, rho_inlet_sleeve = 2709.3) (degC), Point: 273Temperature (Cp_Al = 884.72, k_Al = 131.5, sigma_Al = 4.4779E7, rho_Al = 2474.4, Cp_inlet = 813.85, k_inlet = 159.04, sigma_inlet = 3.0864E7, rho_inlet = 2361.6, Cp_outlet = 893.3, k_outlet = 143.86, sigma_outlet = 4.0331E7, rho_outlet = 2335.7, Cp_outlet_sleeve = 760.28, k_outlet_sleeve = 160.99, sigma_outlet_sleeve = 3.4895E7, rho_outlet_sleeve = 2477, Cp_inlet_sleeve = 893.93, k_inlet_sleeve = 141.26, sigma_inlet_sleeve = 4.8693E7, rho_inlet_sleeve = 2709.3) (degC), Point: 275
0                        21.71208922863383        21.014541575244436       21.131320919060443       21.008809145642886       21.013280635649892       21.107649652291002       21.009614490408694       21.028353788225616       21.001339221727847       21.02450915656476        21.00133445819756        21.000681812930793       21.009398498790688       21.000105861948157       21.008297697261185       21.02348193935927        21.00005753542729        21.011524860921497       21.00075328318968        21.000308766626404       21.001775884349286       21.000187693316548       21.000292981196367       21.00960002833881        21.118062281409436       21.012685581415155       21.588214711084902       21.008679763661235       21.144117784259436       21.0180182149399         21.792021658363467
3                        325.0661163698211        290.68715982243384       300.01590562175113       295.3483635904453        272.97746293131286       287.4888792011452        286.48665278919793       272.709830491527         266.9986260906569        280.07465989162245       282.80327786584223       274.62966902268045       271.29318494702306       256.5062259596692        262.07445912792673       256.68468905074826       252.04137844291176       260.844692584012         262.2179499883496        255.9131153632925        255.14471978005565       248.84224561202575       251.68493860386684       288.5274011556339        289.9628902281439        274.6168264526467        312.6933236309758        296.8646888032167        301.7636113687744        289.71826307094284       329.0944452551918
6                        453.0124296965108        417.0691045016529        430.45438913221176       426.5895684812102        404.90139269183476       424.074160734031         423.98814818311246       406.5272890063576        398.7629405135549        416.557066648332         420.2084452533426        412.0234224382025        407.7681866540113        388.25766473435215       395.86930305011674       383.2048416404417        376.91683359718115       389.9859345026416        392.2038261142486        385.97438972374835       384.429343244919         374.0665376017355        378.4881630018482        425.83302015346305       426.3262597074789        406.2069112316236        446.35533776884233       425.57338246826635       429.6497423383147        413.2845832406525        454.3480057803514
9                        527.345436934499         490.49335289293606       506.6694592754868        503.5771607759252        481.1683958674349        503.5102482537036        504.2507007171844        483.8816152035581        474.9351500668341        495.9366197743225        500.41861359815425       492.2237116677004        487.13818503426853       464.4138176689504        473.1988287892674        456.6138540833615        449.3671191129122        465.36286071406346       468.38417142651554       462.2859306160898        459.9701737398285        446.77934591101905       452.1272113198131        505.98884566772404       505.6323215895269        482.26677818596136       523.6082608457458        501.0498738638314        504.32329409534634       484.9634102245949        527.0206514214143
12                       578.7207673734807        541.2580350481586        559.4516640185834        556.9790645646996        533.0545083626569        557.660983530301         559.0571539713234        536.4817474915972        526.759567339249         550.0516036786149        555.1921538001598        546.9937870210625        541.2492898470555        516.2286907004202        525.7829717127136        507.4431524999301        499.55277534723973       517.6583651819416        521.321948540557         515.3006858068377        512.3561938040344        497.1014703749414        503.0756968843998        560.7324422845077        559.7019387118473        534.0188383878282        576.1428825389194        553.5831525304777        556.2041582452233        534.6668886128548        577.395265601066
15                       617.3085587380676        579.4060286625485        599.1329950159377        597.1634781860845        571.4042423459882        597.6984438517361        599.617246721753         575.331953899483         565.0677797544614        590.0656971328403        595.7308769983644        587.5329691378955        581.2632222671883        554.53227221344          564.6235435347334        545.6873721578429        537.3345914799909        557.0387671958936        561.2224958337804        555.2764096117002        551.8155781386798        534.9810177503616        541.4084499156996        601.2554567087008        599.6879951863012        572.2800446491068        614.9503626804732        593.264401423539         595.3510718502649        572.1533511777715        615.3659200362522
18                       648.3100268536459        610.0717068796469        631.0202671981958        629.4707199485931        601.7869400467579        629.3987098926963        631.7459034258284        606.0870435118476        595.4216517549032        621.7502748556295        627.8452821416815        619.6496402215449        612.949389947112         584.88415821509          595.3725762768842        576.4612439145706        567.7564832054419        588.730510439734         593.3476273788376        587.4768850517822        583.5818269003204        565.4829179784584        572.2572363131516        633.3621826132045        631.35481712687          602.6024357197797        645.6766332753681        625.2761160247085        626.9143577926025        602.3923892589816        645.9742825127623
21                       674.723021207681         636.2144923377421        658.1754767161624        656.9844773658671        627.4096727149573        656.0944442324163        658.8019647268733        632.0032591546211        621.0236812649199        648.4351268277733        654.8915166538267        646.698919072536         639.636636029474         610.4856828895857        621.2848535554655        602.7156552980175        593.7286280366623        615.7520999999754        620.7385920796091        614.9405130680702        610.6732715935707        591.5244683502907        598.5779775236045        660.4052799103749        658.0281282585375        628.1827194964958        671.5727308143404        652.6126268722642        653.8672056496218        628.2491532312173        672.1271653014045
24                       698.2434220398329        659.5088438252156        682.3326207292712        681.4524987087921        650.0888331330123        679.6760488535768        682.6926667503517        654.9244481425685        643.6874974645882        672.0089445569987        678.7752208433889        670.585869674432         663.2131073989244        633.1497609764191        644.2033377773398        626.120187781751         616.897835904128         639.8133081091103        645.11956046114          639.3890625335979        634.7986345701652        614.7550675390986        622.0418050595091        684.2883710566168        681.59420888709          650.8310119551971        694.479358312548         676.971184800105         677.8931542278715        651.3436805605269        695.4681339812
27                       719.7841262320005        680.8564518457268        704.4259169062085        703.8171688825512        670.8025174784096        701.1623345998185        704.4467795017478        675.8429840800105        664.3895459880968        693.4895318741569        700.5242323464892        692.3380479224325        684.6963346031188        653.8524512901095        665.1199233795177        647.573281809655         638.1505430969893        661.835161646462         667.4201453370591        661.751018883067         656.878412453668         636.06221962217          643.5477650011176        706.0381725596993        703.0694909356685        671.5216989748686        715.3870607377029        699.2669838759051        699.898971772427         672.5472405981908        716.881050771131
