% Model:              brazing.mph
% Version:            COMSOL 5.3.0.223
% Date:               Oct 24 2018, 03:54
% Table:              Table 3 - 
% Time (s)               Temperature (Cp_Al = 865.08, k_Al = 149.78, sigma_Al = 4.0185E7, rho_Al = 2682.6, Cp_inlet = 931.32, k_inlet = 159.21, sigma_inlet = 3.3927E7, rho_inlet = 2461.5, Cp_outlet = 850.65, k_outlet = 155.91, sigma_outlet = 3.7701E7, rho_outlet = 2586.5, Cp_outlet_sleeve = 822.03, k_outlet_sleeve = 164.7, sigma_outlet_sleeve = 3.4261E7, rho_outlet_sleeve = 2523.8, Cp_inlet_sleeve = 916.13, k_inlet_sleeve = 161.09, sigma_inlet_sleeve = 4.0439E7, rho_inlet_sleeve = 2556.6) (degC), Point: 55Temperature (Cp_Al = 865.08, k_Al = 149.78, sigma_Al = 4.0185E7, rho_Al = 2682.6, Cp_inlet = 931.32, k_inlet = 159.21, sigma_inlet = 3.3927E7, rho_inlet = 2461.5, Cp_outlet = 850.65, k_outlet = 155.91, sigma_outlet = 3.7701E7, rho_outlet = 2586.5, Cp_outlet_sleeve = 822.03, k_outlet_sleeve = 164.7, sigma_outlet_sleeve = 3.4261E7, rho_outlet_sleeve = 2523.8, Cp_inlet_sleeve = 916.13, k_inlet_sleeve = 161.09, sigma_inlet_sleeve = 4.0439E7, rho_inlet_sleeve = 2556.6) (degC), Point: 56Temperature (Cp_Al = 865.08, k_Al = 149.78, sigma_Al = 4.0185E7, rho_Al = 2682.6, Cp_inlet = 931.32, k_inlet = 159.21, sigma_inlet = 3.3927E7, rho_inlet = 2461.5, Cp_outlet = 850.65, k_outlet = 155.91, sigma_outlet = 3.7701E7, rho_outlet = 2586.5, Cp_outlet_sleeve = 822.03, k_outlet_sleeve = 164.7, sigma_outlet_sleeve = 3.4261E7, rho_outlet_sleeve = 2523.8, Cp_inlet_sleeve = 916.13, k_inlet_sleeve = 161.09, sigma_inlet_sleeve = 4.0439E7, rho_inlet_sleeve = 2556.6) (degC), Point: 60Temperature (Cp_Al = 865.08, k_Al = 149.78, sigma_Al = 4.0185E7, rho_Al = 2682.6, Cp_inlet = 931.32, k_inlet = 159.21, sigma_inlet = 3.3927E7, rho_inlet = 2461.5, Cp_outlet = 850.65, k_outlet = 155.91, sigma_outlet = 3.7701E7, rho_outlet = 2586.5, Cp_outlet_sleeve = 822.03, k_outlet_sleeve = 164.7, sigma_outlet_sleeve = 3.4261E7, rho_outlet_sleeve = 2523.8, Cp_inlet_sleeve = 916.13, k_inlet_sleeve = 161.09, sigma_inlet_sleeve = 4.0439E7, rho_inlet_sleeve = 2556.6) (degC), Point: 69Temperature (Cp_Al = 865.08, k_Al = 149.78, sigma_Al = 4.0185E7, rho_Al = 2682.6, Cp_inlet = 931.32, k_inlet = 159.21, sigma_inlet = 3.3927E7, rho_inlet = 2461.5, Cp_outlet = 850.65, k_outlet = 155.91, sigma_outlet = 3.7701E7, rho_outlet = 2586.5, Cp_outlet_sleeve = 822.03, k_outlet_sleeve = 164.7, sigma_outlet_sleeve = 3.4261E7, rho_outlet_sleeve = 2523.8, Cp_inlet_sleeve = 916.13, k_inlet_sleeve = 161.09, sigma_inlet_sleeve = 4.0439E7, rho_inlet_sleeve = 2556.6) (degC), Point: 90Temperature (Cp_Al = 865.08, k_Al = 149.78, sigma_Al = 4.0185E7, rho_Al = 2682.6, Cp_inlet = 931.32, k_inlet = 159.21, sigma_inlet = 3.3927E7, rho_inlet = 2461.5, Cp_outlet = 850.65, k_outlet = 155.91, sigma_outlet = 3.7701E7, rho_outlet = 2586.5, Cp_outlet_sleeve = 822.03, k_outlet_sleeve = 164.7, sigma_outlet_sleeve = 3.4261E7, rho_outlet_sleeve = 2523.8, Cp_inlet_sleeve = 916.13, k_inlet_sleeve = 161.09, sigma_inlet_sleeve = 4.0439E7, rho_inlet_sleeve = 2556.6) (degC), Point: 98Temperature (Cp_Al = 865.08, k_Al = 149.78, sigma_Al = 4.0185E7, rho_Al = 2682.6, Cp_inlet = 931.32, k_inlet = 159.21, sigma_inlet = 3.3927E7, rho_inlet = 2461.5, Cp_outlet = 850.65, k_outlet = 155.91, sigma_outlet = 3.7701E7, rho_outlet = 2586.5, Cp_outlet_sleeve = 822.03, k_outlet_sleeve = 164.7, sigma_outlet_sleeve = 3.4261E7, rho_outlet_sleeve = 2523.8, Cp_inlet_sleeve = 916.13, k_inlet_sleeve = 161.09, sigma_inlet_sleeve = 4.0439E7, rho_inlet_sleeve = 2556.6) (degC), Point: 102Temperature (Cp_Al = 865.08, k_Al = 149.78, sigma_Al = 4.0185E7, rho_Al = 2682.6, Cp_inlet = 931.32, k_inlet = 159.21, sigma_inlet = 3.3927E7, rho_inlet = 2461.5, Cp_outlet = 850.65, k_outlet = 155.91, sigma_outlet = 3.7701E7, rho_outlet = 2586.5, Cp_outlet_sleeve = 822.03, k_outlet_sleeve = 164.7, sigma_outlet_sleeve = 3.4261E7, rho_outlet_sleeve = 2523.8, Cp_inlet_sleeve = 916.13, k_inlet_sleeve = 161.09, sigma_inlet_sleeve = 4.0439E7, rho_inlet_sleeve = 2556.6) (degC), Point: 127Temperature (Cp_Al = 865.08, k_Al = 149.78, sigma_Al = 4.0185E7, rho_Al = 2682.6, Cp_inlet = 931.32, k_inlet = 159.21, sigma_inlet = 3.3927E7, rho_inlet = 2461.5, Cp_outlet = 850.65, k_outlet = 155.91, sigma_outlet = 3.7701E7, rho_outlet = 2586.5, Cp_outlet_sleeve = 822.03, k_outlet_sleeve = 164.7, sigma_outlet_sleeve = 3.4261E7, rho_outlet_sleeve = 2523.8, Cp_inlet_sleeve = 916.13, k_inlet_sleeve = 161.09, sigma_inlet_sleeve = 4.0439E7, rho_inlet_sleeve = 2556.6) (degC), Point: 128Temperature (Cp_Al = 865.08, k_Al = 149.78, sigma_Al = 4.0185E7, rho_Al = 2682.6, Cp_inlet = 931.32, k_inlet = 159.21, sigma_inlet = 3.3927E7, rho_inlet = 2461.5, Cp_outlet = 850.65, k_outlet = 155.91, sigma_outlet = 3.7701E7, rho_outlet = 2586.5, Cp_outlet_sleeve = 822.03, k_outlet_sleeve = 164.7, sigma_outlet_sleeve = 3.4261E7, rho_outlet_sleeve = 2523.8, Cp_inlet_sleeve = 916.13, k_inlet_sleeve = 161.09, sigma_inlet_sleeve = 4.0439E7, rho_inlet_sleeve = 2556.6) (degC), Point: 134Temperature (Cp_Al = 865.08, k_Al = 149.78, sigma_Al = 4.0185E7, rho_Al = 2682.6, Cp_inlet = 931.32, k_inlet = 159.21, sigma_inlet = 3.3927E7, rho_inlet = 2461.5, Cp_outlet = 850.65, k_outlet = 155.91, sigma_outlet = 3.7701E7, rho_outlet = 2586.5, Cp_outlet_sleeve = 822.03, k_outlet_sleeve = 164.7, sigma_outlet_sleeve = 3.4261E7, rho_outlet_sleeve = 2523.8, Cp_inlet_sleeve = 916.13, k_inlet_sleeve = 161.09, sigma_inlet_sleeve = 4.0439E7, rho_inlet_sleeve = 2556.6) (degC), Point: 138Temperature (Cp_Al = 865.08, k_Al = 149.78, sigma_Al = 4.0185E7, rho_Al = 2682.6, Cp_inlet = 931.32, k_inlet = 159.21, sigma_inlet = 3.3927E7, rho_inlet = 2461.5, Cp_outlet = 850.65, k_outlet = 155.91, sigma_outlet = 3.7701E7, rho_outlet = 2586.5, Cp_outlet_sleeve = 822.03, k_outlet_sleeve = 164.7, sigma_outlet_sleeve = 3.4261E7, rho_outlet_sleeve = 2523.8, Cp_inlet_sleeve = 916.13, k_inlet_sleeve = 161.09, sigma_inlet_sleeve = 4.0439E7, rho_inlet_sleeve = 2556.6) (degC), Point: 151Temperature (Cp_Al = 865.08, k_Al = 149.78, sigma_Al = 4.0185E7, rho_Al = 2682.6, Cp_inlet = 931.32, k_inlet = 159.21, sigma_inlet = 3.3927E7, rho_inlet = 2461.5, Cp_outlet = 850.65, k_outlet = 155.91, sigma_outlet = 3.7701E7, rho_outlet = 2586.5, Cp_outlet_sleeve = 822.03, k_outlet_sleeve = 164.7, sigma_outlet_sleeve = 3.4261E7, rho_outlet_sleeve = 2523.8, Cp_inlet_sleeve = 916.13, k_inlet_sleeve = 161.09, sigma_inlet_sleeve = 4.0439E7, rho_inlet_sleeve = 2556.6) (degC), Point: 154Temperature (Cp_Al = 865.08, k_Al = 149.78, sigma_Al = 4.0185E7, rho_Al = 2682.6, Cp_inlet = 931.32, k_inlet = 159.21, sigma_inlet = 3.3927E7, rho_inlet = 2461.5, Cp_outlet = 850.65, k_outlet = 155.91, sigma_outlet = 3.7701E7, rho_outlet = 2586.5, Cp_outlet_sleeve = 822.03, k_outlet_sleeve = 164.7, sigma_outlet_sleeve = 3.4261E7, rho_outlet_sleeve = 2523.8, Cp_inlet_sleeve = 916.13, k_inlet_sleeve = 161.09, sigma_inlet_sleeve = 4.0439E7, rho_inlet_sleeve = 2556.6) (degC), Point: 159Temperature (Cp_Al = 865.08, k_Al = 149.78, sigma_Al = 4.0185E7, rho_Al = 2682.6, Cp_inlet = 931.32, k_inlet = 159.21, sigma_inlet = 3.3927E7, rho_inlet = 2461.5, Cp_outlet = 850.65, k_outlet = 155.91, sigma_outlet = 3.7701E7, rho_outlet = 2586.5, Cp_outlet_sleeve = 822.03, k_outlet_sleeve = 164.7, sigma_outlet_sleeve = 3.4261E7, rho_outlet_sleeve = 2523.8, Cp_inlet_sleeve = 916.13, k_inlet_sleeve = 161.09, sigma_inlet_sleeve = 4.0439E7, rho_inlet_sleeve = 2556.6) (degC), Point: 163Temperature (Cp_Al = 865.08, k_Al = 149.78, sigma_Al = 4.0185E7, rho_Al = 2682.6, Cp_inlet = 931.32, k_inlet = 159.21, sigma_inlet = 3.3927E7, rho_inlet = 2461.5, Cp_outlet = 850.65, k_outlet = 155.91, sigma_outlet = 3.7701E7, rho_outlet = 2586.5, Cp_outlet_sleeve = 822.03, k_outlet_sleeve = 164.7, sigma_outlet_sleeve = 3.4261E7, rho_outlet_sleeve = 2523.8, Cp_inlet_sleeve = 916.13, k_inlet_sleeve = 161.09, sigma_inlet_sleeve = 4.0439E7, rho_inlet_sleeve = 2556.6) (degC), Point: 167Temperature (Cp_Al = 865.08, k_Al = 149.78, sigma_Al = 4.0185E7, rho_Al = 2682.6, Cp_inlet = 931.32, k_inlet = 159.21, sigma_inlet = 3.3927E7, rho_inlet = 2461.5, Cp_outlet = 850.65, k_outlet = 155.91, sigma_outlet = 3.7701E7, rho_outlet = 2586.5, Cp_outlet_sleeve = 822.03, k_outlet_sleeve = 164.7, sigma_outlet_sleeve = 3.4261E7, rho_outlet_sleeve = 2523.8, Cp_inlet_sleeve = 916.13, k_inlet_sleeve = 161.09, sigma_inlet_sleeve = 4.0439E7, rho_inlet_sleeve = 2556.6) (degC), Point: 168Temperature (Cp_Al = 865.08, k_Al = 149.78, sigma_Al = 4.0185E7, rho_Al = 2682.6, Cp_inlet = 931.32, k_inlet = 159.21, sigma_inlet = 3.3927E7, rho_inlet = 2461.5, Cp_outlet = 850.65, k_outlet = 155.91, sigma_outlet = 3.7701E7, rho_outlet = 2586.5, Cp_outlet_sleeve = 822.03, k_outlet_sleeve = 164.7, sigma_outlet_sleeve = 3.4261E7, rho_outlet_sleeve = 2523.8, Cp_inlet_sleeve = 916.13, k_inlet_sleeve = 161.09, sigma_inlet_sleeve = 4.0439E7, rho_inlet_sleeve = 2556.6) (degC), Point: 172Temperature (Cp_Al = 865.08, k_Al = 149.78, sigma_Al = 4.0185E7, rho_Al = 2682.6, Cp_inlet = 931.32, k_inlet = 159.21, sigma_inlet = 3.3927E7, rho_inlet = 2461.5, Cp_outlet = 850.65, k_outlet = 155.91, sigma_outlet = 3.7701E7, rho_outlet = 2586.5, Cp_outlet_sleeve = 822.03, k_outlet_sleeve = 164.7, sigma_outlet_sleeve = 3.4261E7, rho_outlet_sleeve = 2523.8, Cp_inlet_sleeve = 916.13, k_inlet_sleeve = 161.09, sigma_inlet_sleeve = 4.0439E7, rho_inlet_sleeve = 2556.6) (degC), Point: 181Temperature (Cp_Al = 865.08, k_Al = 149.78, sigma_Al = 4.0185E7, rho_Al = 2682.6, Cp_inlet = 931.32, k_inlet = 159.21, sigma_inlet = 3.3927E7, rho_inlet = 2461.5, Cp_outlet = 850.65, k_outlet = 155.91, sigma_outlet = 3.7701E7, rho_outlet = 2586.5, Cp_outlet_sleeve = 822.03, k_outlet_sleeve = 164.7, sigma_outlet_sleeve = 3.4261E7, rho_outlet_sleeve = 2523.8, Cp_inlet_sleeve = 916.13, k_inlet_sleeve = 161.09, sigma_inlet_sleeve = 4.0439E7, rho_inlet_sleeve = 2556.6) (degC), Point: 201Temperature (Cp_Al = 865.08, k_Al = 149.78, sigma_Al = 4.0185E7, rho_Al = 2682.6, Cp_inlet = 931.32, k_inlet = 159.21, sigma_inlet = 3.3927E7, rho_inlet = 2461.5, Cp_outlet = 850.65, k_outlet = 155.91, sigma_outlet = 3.7701E7, rho_outlet = 2586.5, Cp_outlet_sleeve = 822.03, k_outlet_sleeve = 164.7, sigma_outlet_sleeve = 3.4261E7, rho_outlet_sleeve = 2523.8, Cp_inlet_sleeve = 916.13, k_inlet_sleeve = 161.09, sigma_inlet_sleeve = 4.0439E7, rho_inlet_sleeve = 2556.6) (degC), Point: 210Temperature (Cp_Al = 865.08, k_Al = 149.78, sigma_Al = 4.0185E7, rho_Al = 2682.6, Cp_inlet = 931.32, k_inlet = 159.21, sigma_inlet = 3.3927E7, rho_inlet = 2461.5, Cp_outlet = 850.65, k_outlet = 155.91, sigma_outlet = 3.7701E7, rho_outlet = 2586.5, Cp_outlet_sleeve = 822.03, k_outlet_sleeve = 164.7, sigma_outlet_sleeve = 3.4261E7, rho_outlet_sleeve = 2523.8, Cp_inlet_sleeve = 916.13, k_inlet_sleeve = 161.09, sigma_inlet_sleeve = 4.0439E7, rho_inlet_sleeve = 2556.6) (degC), Point: 213Temperature (Cp_Al = 865.08, k_Al = 149.78, sigma_Al = 4.0185E7, rho_Al = 2682.6, Cp_inlet = 931.32, k_inlet = 159.21, sigma_inlet = 3.3927E7, rho_inlet = 2461.5, Cp_outlet = 850.65, k_outlet = 155.91, sigma_outlet = 3.7701E7, rho_outlet = 2586.5, Cp_outlet_sleeve = 822.03, k_outlet_sleeve = 164.7, sigma_outlet_sleeve = 3.4261E7, rho_outlet_sleeve = 2523.8, Cp_inlet_sleeve = 916.13, k_inlet_sleeve = 161.09, sigma_inlet_sleeve = 4.0439E7, rho_inlet_sleeve = 2556.6) (degC), Point: 215Temperature (Cp_Al = 865.08, k_Al = 149.78, sigma_Al = 4.0185E7, rho_Al = 2682.6, Cp_inlet = 931.32, k_inlet = 159.21, sigma_inlet = 3.3927E7, rho_inlet = 2461.5, Cp_outlet = 850.65, k_outlet = 155.91, sigma_outlet = 3.7701E7, rho_outlet = 2586.5, Cp_outlet_sleeve = 822.03, k_outlet_sleeve = 164.7, sigma_outlet_sleeve = 3.4261E7, rho_outlet_sleeve = 2523.8, Cp_inlet_sleeve = 916.13, k_inlet_sleeve = 161.09, sigma_inlet_sleeve = 4.0439E7, rho_inlet_sleeve = 2556.6) (degC), Point: 229Temperature (Cp_Al = 865.08, k_Al = 149.78, sigma_Al = 4.0185E7, rho_Al = 2682.6, Cp_inlet = 931.32, k_inlet = 159.21, sigma_inlet = 3.3927E7, rho_inlet = 2461.5, Cp_outlet = 850.65, k_outlet = 155.91, sigma_outlet = 3.7701E7, rho_outlet = 2586.5, Cp_outlet_sleeve = 822.03, k_outlet_sleeve = 164.7, sigma_outlet_sleeve = 3.4261E7, rho_outlet_sleeve = 2523.8, Cp_inlet_sleeve = 916.13, k_inlet_sleeve = 161.09, sigma_inlet_sleeve = 4.0439E7, rho_inlet_sleeve = 2556.6) (degC), Point: 232Temperature (Cp_Al = 865.08, k_Al = 149.78, sigma_Al = 4.0185E7, rho_Al = 2682.6, Cp_inlet = 931.32, k_inlet = 159.21, sigma_inlet = 3.3927E7, rho_inlet = 2461.5, Cp_outlet = 850.65, k_outlet = 155.91, sigma_outlet = 3.7701E7, rho_outlet = 2586.5, Cp_outlet_sleeve = 822.03, k_outlet_sleeve = 164.7, sigma_outlet_sleeve = 3.4261E7, rho_outlet_sleeve = 2523.8, Cp_inlet_sleeve = 916.13, k_inlet_sleeve = 161.09, sigma_inlet_sleeve = 4.0439E7, rho_inlet_sleeve = 2556.6) (degC), Point: 239Temperature (Cp_Al = 865.08, k_Al = 149.78, sigma_Al = 4.0185E7, rho_Al = 2682.6, Cp_inlet = 931.32, k_inlet = 159.21, sigma_inlet = 3.3927E7, rho_inlet = 2461.5, Cp_outlet = 850.65, k_outlet = 155.91, sigma_outlet = 3.7701E7, rho_outlet = 2586.5, Cp_outlet_sleeve = 822.03, k_outlet_sleeve = 164.7, sigma_outlet_sleeve = 3.4261E7, rho_outlet_sleeve = 2523.8, Cp_inlet_sleeve = 916.13, k_inlet_sleeve = 161.09, sigma_inlet_sleeve = 4.0439E7, rho_inlet_sleeve = 2556.6) (degC), Point: 252Temperature (Cp_Al = 865.08, k_Al = 149.78, sigma_Al = 4.0185E7, rho_Al = 2682.6, Cp_inlet = 931.32, k_inlet = 159.21, sigma_inlet = 3.3927E7, rho_inlet = 2461.5, Cp_outlet = 850.65, k_outlet = 155.91, sigma_outlet = 3.7701E7, rho_outlet = 2586.5, Cp_outlet_sleeve = 822.03, k_outlet_sleeve = 164.7, sigma_outlet_sleeve = 3.4261E7, rho_outlet_sleeve = 2523.8, Cp_inlet_sleeve = 916.13, k_inlet_sleeve = 161.09, sigma_inlet_sleeve = 4.0439E7, rho_inlet_sleeve = 2556.6) (degC), Point: 261Temperature (Cp_Al = 865.08, k_Al = 149.78, sigma_Al = 4.0185E7, rho_Al = 2682.6, Cp_inlet = 931.32, k_inlet = 159.21, sigma_inlet = 3.3927E7, rho_inlet = 2461.5, Cp_outlet = 850.65, k_outlet = 155.91, sigma_outlet = 3.7701E7, rho_outlet = 2586.5, Cp_outlet_sleeve = 822.03, k_outlet_sleeve = 164.7, sigma_outlet_sleeve = 3.4261E7, rho_outlet_sleeve = 2523.8, Cp_inlet_sleeve = 916.13, k_inlet_sleeve = 161.09, sigma_inlet_sleeve = 4.0439E7, rho_inlet_sleeve = 2556.6) (degC), Point: 270Temperature (Cp_Al = 865.08, k_Al = 149.78, sigma_Al = 4.0185E7, rho_Al = 2682.6, Cp_inlet = 931.32, k_inlet = 159.21, sigma_inlet = 3.3927E7, rho_inlet = 2461.5, Cp_outlet = 850.65, k_outlet = 155.91, sigma_outlet = 3.7701E7, rho_outlet = 2586.5, Cp_outlet_sleeve = 822.03, k_outlet_sleeve = 164.7, sigma_outlet_sleeve = 3.4261E7, rho_outlet_sleeve = 2523.8, Cp_inlet_sleeve = 916.13, k_inlet_sleeve = 161.09, sigma_inlet_sleeve = 4.0439E7, rho_inlet_sleeve = 2556.6) (degC), Point: 273Temperature (Cp_Al = 865.08, k_Al = 149.78, sigma_Al = 4.0185E7, rho_Al = 2682.6, Cp_inlet = 931.32, k_inlet = 159.21, sigma_inlet = 3.3927E7, rho_inlet = 2461.5, Cp_outlet = 850.65, k_outlet = 155.91, sigma_outlet = 3.7701E7, rho_outlet = 2586.5, Cp_outlet_sleeve = 822.03, k_outlet_sleeve = 164.7, sigma_outlet_sleeve = 3.4261E7, rho_outlet_sleeve = 2523.8, Cp_inlet_sleeve = 916.13, k_inlet_sleeve = 161.09, sigma_inlet_sleeve = 4.0439E7, rho_inlet_sleeve = 2556.6) (degC), Point: 275
0                        21.645309154193228       21.013342086585737       21.132236182979398       21.008629312126686       21.01394192779253        21.1085531241755         21.008656729266875       21.02637208848944        21.001459393389098       21.02467835352411        21.00121800417071        21.000635367406915       21.009539519680004       21.00011058311054        21.007849451408617       21.021236761800594       21.000054688322052       21.011597794969646       21.000731121750505       21.000296412739203       21.001780483434743       21.00017582662764        21.00026683097616        21.008641810572612       21.119081143307312       21.01338961573299        21.556794145928222       21.00851882567696        21.14514912604784        21.016475750297843       21.71782161047969
3                        310.5790543172644        277.0426757905815        286.4044022367699        281.65739977344174       262.10452418908426       274.57141464511903       272.76489838763166       261.3590879235297        256.63877652388794       267.2460929871329        269.18076966194417       261.027221181693         258.46465669357065       246.185601777619         250.9591418294233        244.39791949242328       239.90337338041866       248.72517255569608       250.1395951523633        243.9261960762601        243.0692857066424        236.66558558276586       239.41564228444452       274.7534432106436        277.0000434745856        263.64733600999784       296.3653463299031        283.16625215255215       288.1687342153375        276.1942205350233        314.59551264020286
6                        433.8408471732056        398.7921602456113        411.9915103263945        407.99650465796947       383.55745303921344       401.00617339123085       400.28550303594193       384.6181607771001        377.9386850682014        393.5800909630025        396.60572682061775       388.43270428501353       384.78277900745775       367.46098603930295       374.1844502023306        366.3890901625109        360.310219202677         373.1590550351557        375.3633092315249        369.11613840813766       367.53132401772905       357.28387659460316       361.56071801604503       402.07370888223795       403.20732589699094       384.7678321479664        419.4624501645445        407.13982063172693       411.37186966944216       395.3150226055842        435.3415371480354
9                        505.75222999715595       469.8073469305033        485.7302544489502        482.4874068436941        452.1333933788046        472.8674202091362        473.0708275639828        454.2043392590598        446.4223070443069        465.3852148056412        469.3384896231321        461.1570054432648        456.58029233292075       435.9326683597053        443.74962537481906       437.4492375909392        430.4284217402443        446.1280028044637        449.1137090542004        442.97957079796277       440.64457066265925       427.6407159934049        432.8287720389143        474.7546591364003        474.9405641900257        453.14571928374073       488.9521324815154        480.2366295522568        483.68792745527844       464.71854463423404       505.7186984052968
12                       555.0137460212059        518.4661331628049        536.3793002282688        533.7506932437091        498.12422194814076       521.1185491647692        522.0201456709365        500.8372617576906        492.3539368408731        513.6014869987421        518.2554141205375        510.0720927483402        504.7947026187836        481.8588926188173        490.3705719177401        486.2092715294824        478.5554397181604        496.33211108560636       499.9536702573881        493.8999428143828        490.9421933832864        475.906553463211         481.71057848812654       523.6444063201359        523.1140585824065        499.01167923831974       535.5249869934504        530.7184874255183        533.5244138005613        512.4167254019387        554.0742260532454
15                       592.2856136286406        555.2983121655685        574.7437929088658        572.6182483870717        532.4569350390544        557.0903346736557        558.5253669021001        535.6135712544071        526.6467825068183        549.5504072319891        554.7395263393036        546.5576580806979        540.7447622237128        516.1500695337106        525.1403062234732        523.164026409791         515.0496202788053        534.4203980882281        538.5614591208558        532.5894142570987        529.1161349869045        512.5062372766672        518.7612493362025        560.1142951978962        559.0366641983302        533.2622047642448        570.2625105203449        569.139019843955         571.4121165744058        548.6539674630362        590.7913001367965
18                       622.0915717420189        584.7692264077465        605.4377292630853        603.7332864298677        559.6158488007604        585.4820988641776        587.3363424624769        563.0920890562257        553.7784538472995        577.9270459487142        583.5366395081791        575.3577176067643        569.1239011252608        543.2819847676211        552.6152612278488        552.7641532743113        544.2999212278983        564.9390305476111        569.514058160726         563.6231382994455        559.7151359456262        541.8431846371243        548.4426044883752        588.9047902247452        587.3970995657921        560.3662882404684        597.7156234064023        600.0048056628134        601.8295904685223        577.7532010189396        620.2556325957976
21                       647.5686178325692        609.975382817247         631.6627994367883        630.3192018990652        582.6984614217974        609.546862473169         611.7447863154246        586.4222828684477        576.8416288356925        601.9813711918604        607.9355751279835        599.7601187732598        593.1812198207795        566.3463026964132        575.9434881817028        578.0987441982578        569.3526621001918        591.045369585085         595.9916101900125        590.177756271961         585.8958870307447        566.9707201074198        573.8485872841766        613.3012224499603        611.4410641138644        583.4107083322809        621.0284020858484        626.447598994467         627.88754553789          602.7146593878836        645.5111243577991
24                       670.3605541787367        632.5395408994889        655.0992596472338        654.0694629663509        603.3289278341362        630.9961393279007        633.4858962058004        607.2557031832548        597.4577170377478        623.4231894921754        629.6699231143896        621.4980113916336        614.6261285529107        586.9639322735748        596.7758054389317        600.7867209403437        591.8044363420444        614.3968261025703        619.6653748347809        613.922254138359         609.3148546957622        589.4881018234628        596.5997576574682        635.0353668623052        632.8760502846955        604.0135879974436        641.849405859888         650.113309862392         651.2187190658783        625.109845469332         668.1522871879563
27                       691.2620126932343        653.2464015048265        676.5603393297391        675.8044889230522        622.3016647241096        650.6677178943166        653.4097888865471        626.399741055618         616.4196370793271        643.0893692569797        649.588940970337         641.4204601374898        634.2953177253827        605.927547846642         615.9192457640368        621.6102381340332        612.4267671870768        635.7953053176725        641.3448339880199        635.665457283055         630.7738117989379        610.1681544505733        617.4791536999352        654.9555508903483        652.537719057127         622.9660808624885        660.9844338063891        671.799396659784         672.6131135808604        645.6975817724817        688.9490747133378
