% Model:              brazing.mph
% Version:            COMSOL 5.3.0.223
% Date:               Oct 24 2018, 04:05
% Table:              Table 3 - 
% Time (s)               Temperature (Cp_Al = 706.27, k_Al = 118.83, sigma_Al = 3.6793E7, rho_Al = 2882.9, Cp_inlet = 1066.6, k_inlet = 160.28, sigma_inlet = 3.2374E7, rho_inlet = 1846.9, Cp_outlet = 753.17, k_outlet = 126.66, sigma_outlet = 3.735E7, rho_outlet = 2803.1, Cp_outlet_sleeve = 836.77, k_outlet_sleeve = 181.3, sigma_outlet_sleeve = 3.15E7, rho_outlet_sleeve = 2099, Cp_inlet_sleeve = 891.16, k_inlet_sleeve = 179.71, sigma_inlet_sleeve = 4.0578E7, rho_inlet_sleeve = 2307.9) (degC), Point: 55Temperature (Cp_Al = 706.27, k_Al = 118.83, sigma_Al = 3.6793E7, rho_Al = 2882.9, Cp_inlet = 1066.6, k_inlet = 160.28, sigma_inlet = 3.2374E7, rho_inlet = 1846.9, Cp_outlet = 753.17, k_outlet = 126.66, sigma_outlet = 3.735E7, rho_outlet = 2803.1, Cp_outlet_sleeve = 836.77, k_outlet_sleeve = 181.3, sigma_outlet_sleeve = 3.15E7, rho_outlet_sleeve = 2099, Cp_inlet_sleeve = 891.16, k_inlet_sleeve = 179.71, sigma_inlet_sleeve = 4.0578E7, rho_inlet_sleeve = 2307.9) (degC), Point: 56Temperature (Cp_Al = 706.27, k_Al = 118.83, sigma_Al = 3.6793E7, rho_Al = 2882.9, Cp_inlet = 1066.6, k_inlet = 160.28, sigma_inlet = 3.2374E7, rho_inlet = 1846.9, Cp_outlet = 753.17, k_outlet = 126.66, sigma_outlet = 3.735E7, rho_outlet = 2803.1, Cp_outlet_sleeve = 836.77, k_outlet_sleeve = 181.3, sigma_outlet_sleeve = 3.15E7, rho_outlet_sleeve = 2099, Cp_inlet_sleeve = 891.16, k_inlet_sleeve = 179.71, sigma_inlet_sleeve = 4.0578E7, rho_inlet_sleeve = 2307.9) (degC), Point: 60Temperature (Cp_Al = 706.27, k_Al = 118.83, sigma_Al = 3.6793E7, rho_Al = 2882.9, Cp_inlet = 1066.6, k_inlet = 160.28, sigma_inlet = 3.2374E7, rho_inlet = 1846.9, Cp_outlet = 753.17, k_outlet = 126.66, sigma_outlet = 3.735E7, rho_outlet = 2803.1, Cp_outlet_sleeve = 836.77, k_outlet_sleeve = 181.3, sigma_outlet_sleeve = 3.15E7, rho_outlet_sleeve = 2099, Cp_inlet_sleeve = 891.16, k_inlet_sleeve = 179.71, sigma_inlet_sleeve = 4.0578E7, rho_inlet_sleeve = 2307.9) (degC), Point: 69Temperature (Cp_Al = 706.27, k_Al = 118.83, sigma_Al = 3.6793E7, rho_Al = 2882.9, Cp_inlet = 1066.6, k_inlet = 160.28, sigma_inlet = 3.2374E7, rho_inlet = 1846.9, Cp_outlet = 753.17, k_outlet = 126.66, sigma_outlet = 3.735E7, rho_outlet = 2803.1, Cp_outlet_sleeve = 836.77, k_outlet_sleeve = 181.3, sigma_outlet_sleeve = 3.15E7, rho_outlet_sleeve = 2099, Cp_inlet_sleeve = 891.16, k_inlet_sleeve = 179.71, sigma_inlet_sleeve = 4.0578E7, rho_inlet_sleeve = 2307.9) (degC), Point: 90Temperature (Cp_Al = 706.27, k_Al = 118.83, sigma_Al = 3.6793E7, rho_Al = 2882.9, Cp_inlet = 1066.6, k_inlet = 160.28, sigma_inlet = 3.2374E7, rho_inlet = 1846.9, Cp_outlet = 753.17, k_outlet = 126.66, sigma_outlet = 3.735E7, rho_outlet = 2803.1, Cp_outlet_sleeve = 836.77, k_outlet_sleeve = 181.3, sigma_outlet_sleeve = 3.15E7, rho_outlet_sleeve = 2099, Cp_inlet_sleeve = 891.16, k_inlet_sleeve = 179.71, sigma_inlet_sleeve = 4.0578E7, rho_inlet_sleeve = 2307.9) (degC), Point: 98Temperature (Cp_Al = 706.27, k_Al = 118.83, sigma_Al = 3.6793E7, rho_Al = 2882.9, Cp_inlet = 1066.6, k_inlet = 160.28, sigma_inlet = 3.2374E7, rho_inlet = 1846.9, Cp_outlet = 753.17, k_outlet = 126.66, sigma_outlet = 3.735E7, rho_outlet = 2803.1, Cp_outlet_sleeve = 836.77, k_outlet_sleeve = 181.3, sigma_outlet_sleeve = 3.15E7, rho_outlet_sleeve = 2099, Cp_inlet_sleeve = 891.16, k_inlet_sleeve = 179.71, sigma_inlet_sleeve = 4.0578E7, rho_inlet_sleeve = 2307.9) (degC), Point: 102Temperature (Cp_Al = 706.27, k_Al = 118.83, sigma_Al = 3.6793E7, rho_Al = 2882.9, Cp_inlet = 1066.6, k_inlet = 160.28, sigma_inlet = 3.2374E7, rho_inlet = 1846.9, Cp_outlet = 753.17, k_outlet = 126.66, sigma_outlet = 3.735E7, rho_outlet = 2803.1, Cp_outlet_sleeve = 836.77, k_outlet_sleeve = 181.3, sigma_outlet_sleeve = 3.15E7, rho_outlet_sleeve = 2099, Cp_inlet_sleeve = 891.16, k_inlet_sleeve = 179.71, sigma_inlet_sleeve = 4.0578E7, rho_inlet_sleeve = 2307.9) (degC), Point: 127Temperature (Cp_Al = 706.27, k_Al = 118.83, sigma_Al = 3.6793E7, rho_Al = 2882.9, Cp_inlet = 1066.6, k_inlet = 160.28, sigma_inlet = 3.2374E7, rho_inlet = 1846.9, Cp_outlet = 753.17, k_outlet = 126.66, sigma_outlet = 3.735E7, rho_outlet = 2803.1, Cp_outlet_sleeve = 836.77, k_outlet_sleeve = 181.3, sigma_outlet_sleeve = 3.15E7, rho_outlet_sleeve = 2099, Cp_inlet_sleeve = 891.16, k_inlet_sleeve = 179.71, sigma_inlet_sleeve = 4.0578E7, rho_inlet_sleeve = 2307.9) (degC), Point: 128Temperature (Cp_Al = 706.27, k_Al = 118.83, sigma_Al = 3.6793E7, rho_Al = 2882.9, Cp_inlet = 1066.6, k_inlet = 160.28, sigma_inlet = 3.2374E7, rho_inlet = 1846.9, Cp_outlet = 753.17, k_outlet = 126.66, sigma_outlet = 3.735E7, rho_outlet = 2803.1, Cp_outlet_sleeve = 836.77, k_outlet_sleeve = 181.3, sigma_outlet_sleeve = 3.15E7, rho_outlet_sleeve = 2099, Cp_inlet_sleeve = 891.16, k_inlet_sleeve = 179.71, sigma_inlet_sleeve = 4.0578E7, rho_inlet_sleeve = 2307.9) (degC), Point: 134Temperature (Cp_Al = 706.27, k_Al = 118.83, sigma_Al = 3.6793E7, rho_Al = 2882.9, Cp_inlet = 1066.6, k_inlet = 160.28, sigma_inlet = 3.2374E7, rho_inlet = 1846.9, Cp_outlet = 753.17, k_outlet = 126.66, sigma_outlet = 3.735E7, rho_outlet = 2803.1, Cp_outlet_sleeve = 836.77, k_outlet_sleeve = 181.3, sigma_outlet_sleeve = 3.15E7, rho_outlet_sleeve = 2099, Cp_inlet_sleeve = 891.16, k_inlet_sleeve = 179.71, sigma_inlet_sleeve = 4.0578E7, rho_inlet_sleeve = 2307.9) (degC), Point: 138Temperature (Cp_Al = 706.27, k_Al = 118.83, sigma_Al = 3.6793E7, rho_Al = 2882.9, Cp_inlet = 1066.6, k_inlet = 160.28, sigma_inlet = 3.2374E7, rho_inlet = 1846.9, Cp_outlet = 753.17, k_outlet = 126.66, sigma_outlet = 3.735E7, rho_outlet = 2803.1, Cp_outlet_sleeve = 836.77, k_outlet_sleeve = 181.3, sigma_outlet_sleeve = 3.15E7, rho_outlet_sleeve = 2099, Cp_inlet_sleeve = 891.16, k_inlet_sleeve = 179.71, sigma_inlet_sleeve = 4.0578E7, rho_inlet_sleeve = 2307.9) (degC), Point: 151Temperature (Cp_Al = 706.27, k_Al = 118.83, sigma_Al = 3.6793E7, rho_Al = 2882.9, Cp_inlet = 1066.6, k_inlet = 160.28, sigma_inlet = 3.2374E7, rho_inlet = 1846.9, Cp_outlet = 753.17, k_outlet = 126.66, sigma_outlet = 3.735E7, rho_outlet = 2803.1, Cp_outlet_sleeve = 836.77, k_outlet_sleeve = 181.3, sigma_outlet_sleeve = 3.15E7, rho_outlet_sleeve = 2099, Cp_inlet_sleeve = 891.16, k_inlet_sleeve = 179.71, sigma_inlet_sleeve = 4.0578E7, rho_inlet_sleeve = 2307.9) (degC), Point: 154Temperature (Cp_Al = 706.27, k_Al = 118.83, sigma_Al = 3.6793E7, rho_Al = 2882.9, Cp_inlet = 1066.6, k_inlet = 160.28, sigma_inlet = 3.2374E7, rho_inlet = 1846.9, Cp_outlet = 753.17, k_outlet = 126.66, sigma_outlet = 3.735E7, rho_outlet = 2803.1, Cp_outlet_sleeve = 836.77, k_outlet_sleeve = 181.3, sigma_outlet_sleeve = 3.15E7, rho_outlet_sleeve = 2099, Cp_inlet_sleeve = 891.16, k_inlet_sleeve = 179.71, sigma_inlet_sleeve = 4.0578E7, rho_inlet_sleeve = 2307.9) (degC), Point: 159Temperature (Cp_Al = 706.27, k_Al = 118.83, sigma_Al = 3.6793E7, rho_Al = 2882.9, Cp_inlet = 1066.6, k_inlet = 160.28, sigma_inlet = 3.2374E7, rho_inlet = 1846.9, Cp_outlet = 753.17, k_outlet = 126.66, sigma_outlet = 3.735E7, rho_outlet = 2803.1, Cp_outlet_sleeve = 836.77, k_outlet_sleeve = 181.3, sigma_outlet_sleeve = 3.15E7, rho_outlet_sleeve = 2099, Cp_inlet_sleeve = 891.16, k_inlet_sleeve = 179.71, sigma_inlet_sleeve = 4.0578E7, rho_inlet_sleeve = 2307.9) (degC), Point: 163Temperature (Cp_Al = 706.27, k_Al = 118.83, sigma_Al = 3.6793E7, rho_Al = 2882.9, Cp_inlet = 1066.6, k_inlet = 160.28, sigma_inlet = 3.2374E7, rho_inlet = 1846.9, Cp_outlet = 753.17, k_outlet = 126.66, sigma_outlet = 3.735E7, rho_outlet = 2803.1, Cp_outlet_sleeve = 836.77, k_outlet_sleeve = 181.3, sigma_outlet_sleeve = 3.15E7, rho_outlet_sleeve = 2099, Cp_inlet_sleeve = 891.16, k_inlet_sleeve = 179.71, sigma_inlet_sleeve = 4.0578E7, rho_inlet_sleeve = 2307.9) (degC), Point: 167Temperature (Cp_Al = 706.27, k_Al = 118.83, sigma_Al = 3.6793E7, rho_Al = 2882.9, Cp_inlet = 1066.6, k_inlet = 160.28, sigma_inlet = 3.2374E7, rho_inlet = 1846.9, Cp_outlet = 753.17, k_outlet = 126.66, sigma_outlet = 3.735E7, rho_outlet = 2803.1, Cp_outlet_sleeve = 836.77, k_outlet_sleeve = 181.3, sigma_outlet_sleeve = 3.15E7, rho_outlet_sleeve = 2099, Cp_inlet_sleeve = 891.16, k_inlet_sleeve = 179.71, sigma_inlet_sleeve = 4.0578E7, rho_inlet_sleeve = 2307.9) (degC), Point: 168Temperature (Cp_Al = 706.27, k_Al = 118.83, sigma_Al = 3.6793E7, rho_Al = 2882.9, Cp_inlet = 1066.6, k_inlet = 160.28, sigma_inlet = 3.2374E7, rho_inlet = 1846.9, Cp_outlet = 753.17, k_outlet = 126.66, sigma_outlet = 3.735E7, rho_outlet = 2803.1, Cp_outlet_sleeve = 836.77, k_outlet_sleeve = 181.3, sigma_outlet_sleeve = 3.15E7, rho_outlet_sleeve = 2099, Cp_inlet_sleeve = 891.16, k_inlet_sleeve = 179.71, sigma_inlet_sleeve = 4.0578E7, rho_inlet_sleeve = 2307.9) (degC), Point: 172Temperature (Cp_Al = 706.27, k_Al = 118.83, sigma_Al = 3.6793E7, rho_Al = 2882.9, Cp_inlet = 1066.6, k_inlet = 160.28, sigma_inlet = 3.2374E7, rho_inlet = 1846.9, Cp_outlet = 753.17, k_outlet = 126.66, sigma_outlet = 3.735E7, rho_outlet = 2803.1, Cp_outlet_sleeve = 836.77, k_outlet_sleeve = 181.3, sigma_outlet_sleeve = 3.15E7, rho_outlet_sleeve = 2099, Cp_inlet_sleeve = 891.16, k_inlet_sleeve = 179.71, sigma_inlet_sleeve = 4.0578E7, rho_inlet_sleeve = 2307.9) (degC), Point: 181Temperature (Cp_Al = 706.27, k_Al = 118.83, sigma_Al = 3.6793E7, rho_Al = 2882.9, Cp_inlet = 1066.6, k_inlet = 160.28, sigma_inlet = 3.2374E7, rho_inlet = 1846.9, Cp_outlet = 753.17, k_outlet = 126.66, sigma_outlet = 3.735E7, rho_outlet = 2803.1, Cp_outlet_sleeve = 836.77, k_outlet_sleeve = 181.3, sigma_outlet_sleeve = 3.15E7, rho_outlet_sleeve = 2099, Cp_inlet_sleeve = 891.16, k_inlet_sleeve = 179.71, sigma_inlet_sleeve = 4.0578E7, rho_inlet_sleeve = 2307.9) (degC), Point: 201Temperature (Cp_Al = 706.27, k_Al = 118.83, sigma_Al = 3.6793E7, rho_Al = 2882.9, Cp_inlet = 1066.6, k_inlet = 160.28, sigma_inlet = 3.2374E7, rho_inlet = 1846.9, Cp_outlet = 753.17, k_outlet = 126.66, sigma_outlet = 3.735E7, rho_outlet = 2803.1, Cp_outlet_sleeve = 836.77, k_outlet_sleeve = 181.3, sigma_outlet_sleeve = 3.15E7, rho_outlet_sleeve = 2099, Cp_inlet_sleeve = 891.16, k_inlet_sleeve = 179.71, sigma_inlet_sleeve = 4.0578E7, rho_inlet_sleeve = 2307.9) (degC), Point: 210Temperature (Cp_Al = 706.27, k_Al = 118.83, sigma_Al = 3.6793E7, rho_Al = 2882.9, Cp_inlet = 1066.6, k_inlet = 160.28, sigma_inlet = 3.2374E7, rho_inlet = 1846.9, Cp_outlet = 753.17, k_outlet = 126.66, sigma_outlet = 3.735E7, rho_outlet = 2803.1, Cp_outlet_sleeve = 836.77, k_outlet_sleeve = 181.3, sigma_outlet_sleeve = 3.15E7, rho_outlet_sleeve = 2099, Cp_inlet_sleeve = 891.16, k_inlet_sleeve = 179.71, sigma_inlet_sleeve = 4.0578E7, rho_inlet_sleeve = 2307.9) (degC), Point: 213Temperature (Cp_Al = 706.27, k_Al = 118.83, sigma_Al = 3.6793E7, rho_Al = 2882.9, Cp_inlet = 1066.6, k_inlet = 160.28, sigma_inlet = 3.2374E7, rho_inlet = 1846.9, Cp_outlet = 753.17, k_outlet = 126.66, sigma_outlet = 3.735E7, rho_outlet = 2803.1, Cp_outlet_sleeve = 836.77, k_outlet_sleeve = 181.3, sigma_outlet_sleeve = 3.15E7, rho_outlet_sleeve = 2099, Cp_inlet_sleeve = 891.16, k_inlet_sleeve = 179.71, sigma_inlet_sleeve = 4.0578E7, rho_inlet_sleeve = 2307.9) (degC), Point: 215Temperature (Cp_Al = 706.27, k_Al = 118.83, sigma_Al = 3.6793E7, rho_Al = 2882.9, Cp_inlet = 1066.6, k_inlet = 160.28, sigma_inlet = 3.2374E7, rho_inlet = 1846.9, Cp_outlet = 753.17, k_outlet = 126.66, sigma_outlet = 3.735E7, rho_outlet = 2803.1, Cp_outlet_sleeve = 836.77, k_outlet_sleeve = 181.3, sigma_outlet_sleeve = 3.15E7, rho_outlet_sleeve = 2099, Cp_inlet_sleeve = 891.16, k_inlet_sleeve = 179.71, sigma_inlet_sleeve = 4.0578E7, rho_inlet_sleeve = 2307.9) (degC), Point: 229Temperature (Cp_Al = 706.27, k_Al = 118.83, sigma_Al = 3.6793E7, rho_Al = 2882.9, Cp_inlet = 1066.6, k_inlet = 160.28, sigma_inlet = 3.2374E7, rho_inlet = 1846.9, Cp_outlet = 753.17, k_outlet = 126.66, sigma_outlet = 3.735E7, rho_outlet = 2803.1, Cp_outlet_sleeve = 836.77, k_outlet_sleeve = 181.3, sigma_outlet_sleeve = 3.15E7, rho_outlet_sleeve = 2099, Cp_inlet_sleeve = 891.16, k_inlet_sleeve = 179.71, sigma_inlet_sleeve = 4.0578E7, rho_inlet_sleeve = 2307.9) (degC), Point: 232Temperature (Cp_Al = 706.27, k_Al = 118.83, sigma_Al = 3.6793E7, rho_Al = 2882.9, Cp_inlet = 1066.6, k_inlet = 160.28, sigma_inlet = 3.2374E7, rho_inlet = 1846.9, Cp_outlet = 753.17, k_outlet = 126.66, sigma_outlet = 3.735E7, rho_outlet = 2803.1, Cp_outlet_sleeve = 836.77, k_outlet_sleeve = 181.3, sigma_outlet_sleeve = 3.15E7, rho_outlet_sleeve = 2099, Cp_inlet_sleeve = 891.16, k_inlet_sleeve = 179.71, sigma_inlet_sleeve = 4.0578E7, rho_inlet_sleeve = 2307.9) (degC), Point: 239Temperature (Cp_Al = 706.27, k_Al = 118.83, sigma_Al = 3.6793E7, rho_Al = 2882.9, Cp_inlet = 1066.6, k_inlet = 160.28, sigma_inlet = 3.2374E7, rho_inlet = 1846.9, Cp_outlet = 753.17, k_outlet = 126.66, sigma_outlet = 3.735E7, rho_outlet = 2803.1, Cp_outlet_sleeve = 836.77, k_outlet_sleeve = 181.3, sigma_outlet_sleeve = 3.15E7, rho_outlet_sleeve = 2099, Cp_inlet_sleeve = 891.16, k_inlet_sleeve = 179.71, sigma_inlet_sleeve = 4.0578E7, rho_inlet_sleeve = 2307.9) (degC), Point: 252Temperature (Cp_Al = 706.27, k_Al = 118.83, sigma_Al = 3.6793E7, rho_Al = 2882.9, Cp_inlet = 1066.6, k_inlet = 160.28, sigma_inlet = 3.2374E7, rho_inlet = 1846.9, Cp_outlet = 753.17, k_outlet = 126.66, sigma_outlet = 3.735E7, rho_outlet = 2803.1, Cp_outlet_sleeve = 836.77, k_outlet_sleeve = 181.3, sigma_outlet_sleeve = 3.15E7, rho_outlet_sleeve = 2099, Cp_inlet_sleeve = 891.16, k_inlet_sleeve = 179.71, sigma_inlet_sleeve = 4.0578E7, rho_inlet_sleeve = 2307.9) (degC), Point: 261Temperature (Cp_Al = 706.27, k_Al = 118.83, sigma_Al = 3.6793E7, rho_Al = 2882.9, Cp_inlet = 1066.6, k_inlet = 160.28, sigma_inlet = 3.2374E7, rho_inlet = 1846.9, Cp_outlet = 753.17, k_outlet = 126.66, sigma_outlet = 3.735E7, rho_outlet = 2803.1, Cp_outlet_sleeve = 836.77, k_outlet_sleeve = 181.3, sigma_outlet_sleeve = 3.15E7, rho_outlet_sleeve = 2099, Cp_inlet_sleeve = 891.16, k_inlet_sleeve = 179.71, sigma_inlet_sleeve = 4.0578E7, rho_inlet_sleeve = 2307.9) (degC), Point: 270Temperature (Cp_Al = 706.27, k_Al = 118.83, sigma_Al = 3.6793E7, rho_Al = 2882.9, Cp_inlet = 1066.6, k_inlet = 160.28, sigma_inlet = 3.2374E7, rho_inlet = 1846.9, Cp_outlet = 753.17, k_outlet = 126.66, sigma_outlet = 3.735E7, rho_outlet = 2803.1, Cp_outlet_sleeve = 836.77, k_outlet_sleeve = 181.3, sigma_outlet_sleeve = 3.15E7, rho_outlet_sleeve = 2099, Cp_inlet_sleeve = 891.16, k_inlet_sleeve = 179.71, sigma_inlet_sleeve = 4.0578E7, rho_inlet_sleeve = 2307.9) (degC), Point: 273Temperature (Cp_Al = 706.27, k_Al = 118.83, sigma_Al = 3.6793E7, rho_Al = 2882.9, Cp_inlet = 1066.6, k_inlet = 160.28, sigma_inlet = 3.2374E7, rho_inlet = 1846.9, Cp_outlet = 753.17, k_outlet = 126.66, sigma_outlet = 3.735E7, rho_outlet = 2803.1, Cp_outlet_sleeve = 836.77, k_outlet_sleeve = 181.3, sigma_outlet_sleeve = 3.15E7, rho_outlet_sleeve = 2099, Cp_inlet_sleeve = 891.16, k_inlet_sleeve = 179.71, sigma_inlet_sleeve = 4.0578E7, rho_inlet_sleeve = 2307.9) (degC), Point: 275
0                        21.719671513088088       21.01621139401817        21.133443446975548       21.008982945478067       21.015707752562093       21.108926428866425       21.00946999275027        21.02969957410386        21.00165624093256        21.024771848933767       21.001327169436593       21.000687037420505       21.009540295361376       21.00011994141215        21.00885585094045        21.023821887817746       21.000057032127756       21.011708940019616       21.000762196195353       21.00030942763584        21.001800007311203       21.00019674524566        21.00030527990191        21.00946693114264        21.119488146283118       21.015090688252542       21.624723622406975       21.008868878297903       21.146482869699412       21.019342535551573       21.800236980427258
3                        330.9439510972246        300.4991155136071        311.19659839717156       306.89661073531704       283.76749795797537       297.18462034760034       295.76567296396          283.40234256869394       278.75472572979504       289.94620945197653       292.2363769678027        284.25348086900226       281.35783508228803       268.71683500078143       273.4235943113757        266.0415883636458        261.62544080503494       270.31694604305835       271.7624294602614        265.03712512127595       264.3242816685506        258.3754605615883        261.15856897309595       297.60670811616353       299.4461836405694        285.0800447200452        314.9586199621699        308.0682613195389        312.51744605558576       298.8151342321963        333.83427364907516
6                        461.9233467334873        429.95650940358416       445.04997195262115       441.72094307470275       409.2749480918379        427.62310527146144       427.33263066374525       410.5138602905927        404.09034875700513       420.27345886132923       423.6988739198854        415.6876478280858        411.65888079014496       394.0130123712074        400.4883017296859        395.3814038148265        389.35716777401365       402.6732710857211        405.1368884871905        398.5082798750816        396.84885668010554       386.4825886393004        390.8102812071829        428.9472761830948        429.6251292984398        410.20161438012894       441.8786810440083        439.9784650744517        443.43099723406135       425.03327037779013       461.71260296125865
9                        538.1358122608851        505.31659032588175       523.2696109869509        520.7826224895172        479.674708734265         501.07274852597584       501.6783061601176        481.74941727896055       474.3817411288826        493.6570371557816        497.98344763317004       489.96475066992036       485.0353310320627        464.29283292980847       471.7044560106732        470.5337718821979        463.6042675071843        479.9223179923995        483.25996932074474       476.78113304424085       474.2840540249515        461.0213172080986        466.2207988711216        503.1722283579628        502.92739065110186       480.37120075340204       513.0047834306397        517.2813714853903        519.8628627024333        498.3948733159392        536.0167337411054
12                       591.4576104614955        558.0714668241962        578.0463020061698        576.209863246963         528.5171716911499        552.0004591864529        553.2702576346181        531.1258798876888        523.1534922276161        544.542486379042         549.5365627295686        541.5176010358189        535.9203086666977        513.0608569768322        521.0715574588157        523.2171111779066        515.6855732623928        534.123234530353         538.1350379812773        531.7482681815193        528.5947682383256        513.2686330010374        519.050636546246         554.6929688783629        553.7641987126776        529.0672451083127        562.3132946201683        571.6763639339845        573.5767931625091        549.9267207109538        588.1779362649288
15                       631.4380534179294        597.6546333924557        619.1198754044987        617.7947748654609        565.1953968694935        590.1816503598882        591.9594903140161        568.1694915152051        559.7847299856785        582.6962621191482        588.2007553315112        580.1842449137554        574.0760624677342        549.6914167513668        558.1103178528351        562.7967694501222        554.8442147293384        574.8406285713576        579.3814022207596        573.0778688466213        569.4021045044293        552.5433930413093        558.7355477720098        593.3397699658547        591.8880835495447        565.6499278593147        599.3133177888204        612.6552033615282        614.0148737053136        588.7491106282395        627.4423452882065
18                       663.5537048035776        629.4751686841853        652.0937032245512        651.1830977343835        594.883644661721         621.0205938624961        623.2045332931532        598.1271481904035        589.4407049945339        613.516867033364         619.4291400140261        611.415975422216         604.8994349513875        579.3478496227222        588.0652039575006        594.6492472308937        586.3848953749874        607.5843218903088        612.5532565846432        606.3280309402475        602.2250294799122        584.1733399123398        590.671228855373         624.5590281014931        622.6895996891899        595.2734388320765        629.2417659539044        645.6811989178915        646.5992319287279        620.0798002560691        659.1013804273537
21                       691.0423319133771        656.7304948599742        680.2872158869449        679.7240217503453        620.5395643525128        647.6100633899583        650.1324975627285        623.9970527993133        615.073546262423         640.0935745831499        646.3455585914445        638.3358380068694        631.4789938315793        604.981478118488         613.9332764375246        621.9554238836225        613.4455172252462        635.6208705198168        640.9481604062598        634.7950455471976        630.3319366176437        611.3065214714819        618.0463930552667        651.4708511242541        649.253491094336         620.8834939883105        655.0910710195518        673.9970940715772        674.5434508167109        647.0039948714011        686.2843802494718
24                       715.6219337609427        681.1172888316993        705.4645208431369        705.1995994097887        643.6764833790301        671.5325022110295        674.3444765878614        647.3121830700387        638.1934699297082        664.0068778206283        670.5492956443554        662.5428332177731        655.3949918380642        628.1022547072533        637.2470583447143        646.403158975299         637.6911534801709        660.6864930706108        666.320986297313         660.2330819591737        655.4599141526106        635.6130927805036        642.5528009059803        675.6726120595338        673.1578855690053        643.9868852983194        678.3911467124057        699.3288599690923        699.5557002227441        671.1584562385146        710.6516298351316
27                       738.2174006265017        703.5493028662867        728.575837634034         728.5703494914188        665.0864358832589        693.6149685801079        696.6774298186027        668.8739525148516        659.5906641194907        686.082688202845         692.876255781039         684.8727863469438        677.4732810664055        649.500307226354         658.8077977416306        668.9005817571547        660.0179362831997        683.7160004518693        689.617288407757         683.5877841489558        678.5446198805203        657.9920762673855        665.1008881646168        697.9991780443372        695.2273953231349        665.3718657093951        699.9416904117465        722.6066174547583        722.5556591166144        693.4235834547942        733.0960529127792
