% Model:              brazing.mph
% Version:            COMSOL 5.3.0.223
% Date:               Oct 24 2018, 01:03
% Table:              Table 3 - 
% Time (s)               Temperature (Cp_Al = 930.23, k_Al = 171.29, sigma_Al = 3.5225E7, rho_Al = 2599.4, Cp_inlet = 793.15, k_inlet = 143.46, sigma_inlet = 3.9894E7, rho_inlet = 2689.8, Cp_outlet = 946.24, k_outlet = 168.63, sigma_outlet = 3.3689E7, rho_outlet = 2676.9, Cp_outlet_sleeve = 868.74, k_outlet_sleeve = 156.02, sigma_outlet_sleeve = 3.6099E7, rho_outlet_sleeve = 2838.6, Cp_inlet_sleeve = 889.79, k_inlet_sleeve = 162.82, sigma_inlet_sleeve = 4.038E7, rho_inlet_sleeve = 2689.4) (degC), Point: 55Temperature (Cp_Al = 930.23, k_Al = 171.29, sigma_Al = 3.5225E7, rho_Al = 2599.4, Cp_inlet = 793.15, k_inlet = 143.46, sigma_inlet = 3.9894E7, rho_inlet = 2689.8, Cp_outlet = 946.24, k_outlet = 168.63, sigma_outlet = 3.3689E7, rho_outlet = 2676.9, Cp_outlet_sleeve = 868.74, k_outlet_sleeve = 156.02, sigma_outlet_sleeve = 3.6099E7, rho_outlet_sleeve = 2838.6, Cp_inlet_sleeve = 889.79, k_inlet_sleeve = 162.82, sigma_inlet_sleeve = 4.038E7, rho_inlet_sleeve = 2689.4) (degC), Point: 56Temperature (Cp_Al = 930.23, k_Al = 171.29, sigma_Al = 3.5225E7, rho_Al = 2599.4, Cp_inlet = 793.15, k_inlet = 143.46, sigma_inlet = 3.9894E7, rho_inlet = 2689.8, Cp_outlet = 946.24, k_outlet = 168.63, sigma_outlet = 3.3689E7, rho_outlet = 2676.9, Cp_outlet_sleeve = 868.74, k_outlet_sleeve = 156.02, sigma_outlet_sleeve = 3.6099E7, rho_outlet_sleeve = 2838.6, Cp_inlet_sleeve = 889.79, k_inlet_sleeve = 162.82, sigma_inlet_sleeve = 4.038E7, rho_inlet_sleeve = 2689.4) (degC), Point: 60Temperature (Cp_Al = 930.23, k_Al = 171.29, sigma_Al = 3.5225E7, rho_Al = 2599.4, Cp_inlet = 793.15, k_inlet = 143.46, sigma_inlet = 3.9894E7, rho_inlet = 2689.8, Cp_outlet = 946.24, k_outlet = 168.63, sigma_outlet = 3.3689E7, rho_outlet = 2676.9, Cp_outlet_sleeve = 868.74, k_outlet_sleeve = 156.02, sigma_outlet_sleeve = 3.6099E7, rho_outlet_sleeve = 2838.6, Cp_inlet_sleeve = 889.79, k_inlet_sleeve = 162.82, sigma_inlet_sleeve = 4.038E7, rho_inlet_sleeve = 2689.4) (degC), Point: 69Temperature (Cp_Al = 930.23, k_Al = 171.29, sigma_Al = 3.5225E7, rho_Al = 2599.4, Cp_inlet = 793.15, k_inlet = 143.46, sigma_inlet = 3.9894E7, rho_inlet = 2689.8, Cp_outlet = 946.24, k_outlet = 168.63, sigma_outlet = 3.3689E7, rho_outlet = 2676.9, Cp_outlet_sleeve = 868.74, k_outlet_sleeve = 156.02, sigma_outlet_sleeve = 3.6099E7, rho_outlet_sleeve = 2838.6, Cp_inlet_sleeve = 889.79, k_inlet_sleeve = 162.82, sigma_inlet_sleeve = 4.038E7, rho_inlet_sleeve = 2689.4) (degC), Point: 90Temperature (Cp_Al = 930.23, k_Al = 171.29, sigma_Al = 3.5225E7, rho_Al = 2599.4, Cp_inlet = 793.15, k_inlet = 143.46, sigma_inlet = 3.9894E7, rho_inlet = 2689.8, Cp_outlet = 946.24, k_outlet = 168.63, sigma_outlet = 3.3689E7, rho_outlet = 2676.9, Cp_outlet_sleeve = 868.74, k_outlet_sleeve = 156.02, sigma_outlet_sleeve = 3.6099E7, rho_outlet_sleeve = 2838.6, Cp_inlet_sleeve = 889.79, k_inlet_sleeve = 162.82, sigma_inlet_sleeve = 4.038E7, rho_inlet_sleeve = 2689.4) (degC), Point: 98Temperature (Cp_Al = 930.23, k_Al = 171.29, sigma_Al = 3.5225E7, rho_Al = 2599.4, Cp_inlet = 793.15, k_inlet = 143.46, sigma_inlet = 3.9894E7, rho_inlet = 2689.8, Cp_outlet = 946.24, k_outlet = 168.63, sigma_outlet = 3.3689E7, rho_outlet = 2676.9, Cp_outlet_sleeve = 868.74, k_outlet_sleeve = 156.02, sigma_outlet_sleeve = 3.6099E7, rho_outlet_sleeve = 2838.6, Cp_inlet_sleeve = 889.79, k_inlet_sleeve = 162.82, sigma_inlet_sleeve = 4.038E7, rho_inlet_sleeve = 2689.4) (degC), Point: 102Temperature (Cp_Al = 930.23, k_Al = 171.29, sigma_Al = 3.5225E7, rho_Al = 2599.4, Cp_inlet = 793.15, k_inlet = 143.46, sigma_inlet = 3.9894E7, rho_inlet = 2689.8, Cp_outlet = 946.24, k_outlet = 168.63, sigma_outlet = 3.3689E7, rho_outlet = 2676.9, Cp_outlet_sleeve = 868.74, k_outlet_sleeve = 156.02, sigma_outlet_sleeve = 3.6099E7, rho_outlet_sleeve = 2838.6, Cp_inlet_sleeve = 889.79, k_inlet_sleeve = 162.82, sigma_inlet_sleeve = 4.038E7, rho_inlet_sleeve = 2689.4) (degC), Point: 127Temperature (Cp_Al = 930.23, k_Al = 171.29, sigma_Al = 3.5225E7, rho_Al = 2599.4, Cp_inlet = 793.15, k_inlet = 143.46, sigma_inlet = 3.9894E7, rho_inlet = 2689.8, Cp_outlet = 946.24, k_outlet = 168.63, sigma_outlet = 3.3689E7, rho_outlet = 2676.9, Cp_outlet_sleeve = 868.74, k_outlet_sleeve = 156.02, sigma_outlet_sleeve = 3.6099E7, rho_outlet_sleeve = 2838.6, Cp_inlet_sleeve = 889.79, k_inlet_sleeve = 162.82, sigma_inlet_sleeve = 4.038E7, rho_inlet_sleeve = 2689.4) (degC), Point: 128Temperature (Cp_Al = 930.23, k_Al = 171.29, sigma_Al = 3.5225E7, rho_Al = 2599.4, Cp_inlet = 793.15, k_inlet = 143.46, sigma_inlet = 3.9894E7, rho_inlet = 2689.8, Cp_outlet = 946.24, k_outlet = 168.63, sigma_outlet = 3.3689E7, rho_outlet = 2676.9, Cp_outlet_sleeve = 868.74, k_outlet_sleeve = 156.02, sigma_outlet_sleeve = 3.6099E7, rho_outlet_sleeve = 2838.6, Cp_inlet_sleeve = 889.79, k_inlet_sleeve = 162.82, sigma_inlet_sleeve = 4.038E7, rho_inlet_sleeve = 2689.4) (degC), Point: 134Temperature (Cp_Al = 930.23, k_Al = 171.29, sigma_Al = 3.5225E7, rho_Al = 2599.4, Cp_inlet = 793.15, k_inlet = 143.46, sigma_inlet = 3.9894E7, rho_inlet = 2689.8, Cp_outlet = 946.24, k_outlet = 168.63, sigma_outlet = 3.3689E7, rho_outlet = 2676.9, Cp_outlet_sleeve = 868.74, k_outlet_sleeve = 156.02, sigma_outlet_sleeve = 3.6099E7, rho_outlet_sleeve = 2838.6, Cp_inlet_sleeve = 889.79, k_inlet_sleeve = 162.82, sigma_inlet_sleeve = 4.038E7, rho_inlet_sleeve = 2689.4) (degC), Point: 138Temperature (Cp_Al = 930.23, k_Al = 171.29, sigma_Al = 3.5225E7, rho_Al = 2599.4, Cp_inlet = 793.15, k_inlet = 143.46, sigma_inlet = 3.9894E7, rho_inlet = 2689.8, Cp_outlet = 946.24, k_outlet = 168.63, sigma_outlet = 3.3689E7, rho_outlet = 2676.9, Cp_outlet_sleeve = 868.74, k_outlet_sleeve = 156.02, sigma_outlet_sleeve = 3.6099E7, rho_outlet_sleeve = 2838.6, Cp_inlet_sleeve = 889.79, k_inlet_sleeve = 162.82, sigma_inlet_sleeve = 4.038E7, rho_inlet_sleeve = 2689.4) (degC), Point: 151Temperature (Cp_Al = 930.23, k_Al = 171.29, sigma_Al = 3.5225E7, rho_Al = 2599.4, Cp_inlet = 793.15, k_inlet = 143.46, sigma_inlet = 3.9894E7, rho_inlet = 2689.8, Cp_outlet = 946.24, k_outlet = 168.63, sigma_outlet = 3.3689E7, rho_outlet = 2676.9, Cp_outlet_sleeve = 868.74, k_outlet_sleeve = 156.02, sigma_outlet_sleeve = 3.6099E7, rho_outlet_sleeve = 2838.6, Cp_inlet_sleeve = 889.79, k_inlet_sleeve = 162.82, sigma_inlet_sleeve = 4.038E7, rho_inlet_sleeve = 2689.4) (degC), Point: 154Temperature (Cp_Al = 930.23, k_Al = 171.29, sigma_Al = 3.5225E7, rho_Al = 2599.4, Cp_inlet = 793.15, k_inlet = 143.46, sigma_inlet = 3.9894E7, rho_inlet = 2689.8, Cp_outlet = 946.24, k_outlet = 168.63, sigma_outlet = 3.3689E7, rho_outlet = 2676.9, Cp_outlet_sleeve = 868.74, k_outlet_sleeve = 156.02, sigma_outlet_sleeve = 3.6099E7, rho_outlet_sleeve = 2838.6, Cp_inlet_sleeve = 889.79, k_inlet_sleeve = 162.82, sigma_inlet_sleeve = 4.038E7, rho_inlet_sleeve = 2689.4) (degC), Point: 159Temperature (Cp_Al = 930.23, k_Al = 171.29, sigma_Al = 3.5225E7, rho_Al = 2599.4, Cp_inlet = 793.15, k_inlet = 143.46, sigma_inlet = 3.9894E7, rho_inlet = 2689.8, Cp_outlet = 946.24, k_outlet = 168.63, sigma_outlet = 3.3689E7, rho_outlet = 2676.9, Cp_outlet_sleeve = 868.74, k_outlet_sleeve = 156.02, sigma_outlet_sleeve = 3.6099E7, rho_outlet_sleeve = 2838.6, Cp_inlet_sleeve = 889.79, k_inlet_sleeve = 162.82, sigma_inlet_sleeve = 4.038E7, rho_inlet_sleeve = 2689.4) (degC), Point: 163Temperature (Cp_Al = 930.23, k_Al = 171.29, sigma_Al = 3.5225E7, rho_Al = 2599.4, Cp_inlet = 793.15, k_inlet = 143.46, sigma_inlet = 3.9894E7, rho_inlet = 2689.8, Cp_outlet = 946.24, k_outlet = 168.63, sigma_outlet = 3.3689E7, rho_outlet = 2676.9, Cp_outlet_sleeve = 868.74, k_outlet_sleeve = 156.02, sigma_outlet_sleeve = 3.6099E7, rho_outlet_sleeve = 2838.6, Cp_inlet_sleeve = 889.79, k_inlet_sleeve = 162.82, sigma_inlet_sleeve = 4.038E7, rho_inlet_sleeve = 2689.4) (degC), Point: 167Temperature (Cp_Al = 930.23, k_Al = 171.29, sigma_Al = 3.5225E7, rho_Al = 2599.4, Cp_inlet = 793.15, k_inlet = 143.46, sigma_inlet = 3.9894E7, rho_inlet = 2689.8, Cp_outlet = 946.24, k_outlet = 168.63, sigma_outlet = 3.3689E7, rho_outlet = 2676.9, Cp_outlet_sleeve = 868.74, k_outlet_sleeve = 156.02, sigma_outlet_sleeve = 3.6099E7, rho_outlet_sleeve = 2838.6, Cp_inlet_sleeve = 889.79, k_inlet_sleeve = 162.82, sigma_inlet_sleeve = 4.038E7, rho_inlet_sleeve = 2689.4) (degC), Point: 168Temperature (Cp_Al = 930.23, k_Al = 171.29, sigma_Al = 3.5225E7, rho_Al = 2599.4, Cp_inlet = 793.15, k_inlet = 143.46, sigma_inlet = 3.9894E7, rho_inlet = 2689.8, Cp_outlet = 946.24, k_outlet = 168.63, sigma_outlet = 3.3689E7, rho_outlet = 2676.9, Cp_outlet_sleeve = 868.74, k_outlet_sleeve = 156.02, sigma_outlet_sleeve = 3.6099E7, rho_outlet_sleeve = 2838.6, Cp_inlet_sleeve = 889.79, k_inlet_sleeve = 162.82, sigma_inlet_sleeve = 4.038E7, rho_inlet_sleeve = 2689.4) (degC), Point: 172Temperature (Cp_Al = 930.23, k_Al = 171.29, sigma_Al = 3.5225E7, rho_Al = 2599.4, Cp_inlet = 793.15, k_inlet = 143.46, sigma_inlet = 3.9894E7, rho_inlet = 2689.8, Cp_outlet = 946.24, k_outlet = 168.63, sigma_outlet = 3.3689E7, rho_outlet = 2676.9, Cp_outlet_sleeve = 868.74, k_outlet_sleeve = 156.02, sigma_outlet_sleeve = 3.6099E7, rho_outlet_sleeve = 2838.6, Cp_inlet_sleeve = 889.79, k_inlet_sleeve = 162.82, sigma_inlet_sleeve = 4.038E7, rho_inlet_sleeve = 2689.4) (degC), Point: 181Temperature (Cp_Al = 930.23, k_Al = 171.29, sigma_Al = 3.5225E7, rho_Al = 2599.4, Cp_inlet = 793.15, k_inlet = 143.46, sigma_inlet = 3.9894E7, rho_inlet = 2689.8, Cp_outlet = 946.24, k_outlet = 168.63, sigma_outlet = 3.3689E7, rho_outlet = 2676.9, Cp_outlet_sleeve = 868.74, k_outlet_sleeve = 156.02, sigma_outlet_sleeve = 3.6099E7, rho_outlet_sleeve = 2838.6, Cp_inlet_sleeve = 889.79, k_inlet_sleeve = 162.82, sigma_inlet_sleeve = 4.038E7, rho_inlet_sleeve = 2689.4) (degC), Point: 201Temperature (Cp_Al = 930.23, k_Al = 171.29, sigma_Al = 3.5225E7, rho_Al = 2599.4, Cp_inlet = 793.15, k_inlet = 143.46, sigma_inlet = 3.9894E7, rho_inlet = 2689.8, Cp_outlet = 946.24, k_outlet = 168.63, sigma_outlet = 3.3689E7, rho_outlet = 2676.9, Cp_outlet_sleeve = 868.74, k_outlet_sleeve = 156.02, sigma_outlet_sleeve = 3.6099E7, rho_outlet_sleeve = 2838.6, Cp_inlet_sleeve = 889.79, k_inlet_sleeve = 162.82, sigma_inlet_sleeve = 4.038E7, rho_inlet_sleeve = 2689.4) (degC), Point: 210Temperature (Cp_Al = 930.23, k_Al = 171.29, sigma_Al = 3.5225E7, rho_Al = 2599.4, Cp_inlet = 793.15, k_inlet = 143.46, sigma_inlet = 3.9894E7, rho_inlet = 2689.8, Cp_outlet = 946.24, k_outlet = 168.63, sigma_outlet = 3.3689E7, rho_outlet = 2676.9, Cp_outlet_sleeve = 868.74, k_outlet_sleeve = 156.02, sigma_outlet_sleeve = 3.6099E7, rho_outlet_sleeve = 2838.6, Cp_inlet_sleeve = 889.79, k_inlet_sleeve = 162.82, sigma_inlet_sleeve = 4.038E7, rho_inlet_sleeve = 2689.4) (degC), Point: 213Temperature (Cp_Al = 930.23, k_Al = 171.29, sigma_Al = 3.5225E7, rho_Al = 2599.4, Cp_inlet = 793.15, k_inlet = 143.46, sigma_inlet = 3.9894E7, rho_inlet = 2689.8, Cp_outlet = 946.24, k_outlet = 168.63, sigma_outlet = 3.3689E7, rho_outlet = 2676.9, Cp_outlet_sleeve = 868.74, k_outlet_sleeve = 156.02, sigma_outlet_sleeve = 3.6099E7, rho_outlet_sleeve = 2838.6, Cp_inlet_sleeve = 889.79, k_inlet_sleeve = 162.82, sigma_inlet_sleeve = 4.038E7, rho_inlet_sleeve = 2689.4) (degC), Point: 215Temperature (Cp_Al = 930.23, k_Al = 171.29, sigma_Al = 3.5225E7, rho_Al = 2599.4, Cp_inlet = 793.15, k_inlet = 143.46, sigma_inlet = 3.9894E7, rho_inlet = 2689.8, Cp_outlet = 946.24, k_outlet = 168.63, sigma_outlet = 3.3689E7, rho_outlet = 2676.9, Cp_outlet_sleeve = 868.74, k_outlet_sleeve = 156.02, sigma_outlet_sleeve = 3.6099E7, rho_outlet_sleeve = 2838.6, Cp_inlet_sleeve = 889.79, k_inlet_sleeve = 162.82, sigma_inlet_sleeve = 4.038E7, rho_inlet_sleeve = 2689.4) (degC), Point: 229Temperature (Cp_Al = 930.23, k_Al = 171.29, sigma_Al = 3.5225E7, rho_Al = 2599.4, Cp_inlet = 793.15, k_inlet = 143.46, sigma_inlet = 3.9894E7, rho_inlet = 2689.8, Cp_outlet = 946.24, k_outlet = 168.63, sigma_outlet = 3.3689E7, rho_outlet = 2676.9, Cp_outlet_sleeve = 868.74, k_outlet_sleeve = 156.02, sigma_outlet_sleeve = 3.6099E7, rho_outlet_sleeve = 2838.6, Cp_inlet_sleeve = 889.79, k_inlet_sleeve = 162.82, sigma_inlet_sleeve = 4.038E7, rho_inlet_sleeve = 2689.4) (degC), Point: 232Temperature (Cp_Al = 930.23, k_Al = 171.29, sigma_Al = 3.5225E7, rho_Al = 2599.4, Cp_inlet = 793.15, k_inlet = 143.46, sigma_inlet = 3.9894E7, rho_inlet = 2689.8, Cp_outlet = 946.24, k_outlet = 168.63, sigma_outlet = 3.3689E7, rho_outlet = 2676.9, Cp_outlet_sleeve = 868.74, k_outlet_sleeve = 156.02, sigma_outlet_sleeve = 3.6099E7, rho_outlet_sleeve = 2838.6, Cp_inlet_sleeve = 889.79, k_inlet_sleeve = 162.82, sigma_inlet_sleeve = 4.038E7, rho_inlet_sleeve = 2689.4) (degC), Point: 239Temperature (Cp_Al = 930.23, k_Al = 171.29, sigma_Al = 3.5225E7, rho_Al = 2599.4, Cp_inlet = 793.15, k_inlet = 143.46, sigma_inlet = 3.9894E7, rho_inlet = 2689.8, Cp_outlet = 946.24, k_outlet = 168.63, sigma_outlet = 3.3689E7, rho_outlet = 2676.9, Cp_outlet_sleeve = 868.74, k_outlet_sleeve = 156.02, sigma_outlet_sleeve = 3.6099E7, rho_outlet_sleeve = 2838.6, Cp_inlet_sleeve = 889.79, k_inlet_sleeve = 162.82, sigma_inlet_sleeve = 4.038E7, rho_inlet_sleeve = 2689.4) (degC), Point: 252Temperature (Cp_Al = 930.23, k_Al = 171.29, sigma_Al = 3.5225E7, rho_Al = 2599.4, Cp_inlet = 793.15, k_inlet = 143.46, sigma_inlet = 3.9894E7, rho_inlet = 2689.8, Cp_outlet = 946.24, k_outlet = 168.63, sigma_outlet = 3.3689E7, rho_outlet = 2676.9, Cp_outlet_sleeve = 868.74, k_outlet_sleeve = 156.02, sigma_outlet_sleeve = 3.6099E7, rho_outlet_sleeve = 2838.6, Cp_inlet_sleeve = 889.79, k_inlet_sleeve = 162.82, sigma_inlet_sleeve = 4.038E7, rho_inlet_sleeve = 2689.4) (degC), Point: 261Temperature (Cp_Al = 930.23, k_Al = 171.29, sigma_Al = 3.5225E7, rho_Al = 2599.4, Cp_inlet = 793.15, k_inlet = 143.46, sigma_inlet = 3.9894E7, rho_inlet = 2689.8, Cp_outlet = 946.24, k_outlet = 168.63, sigma_outlet = 3.3689E7, rho_outlet = 2676.9, Cp_outlet_sleeve = 868.74, k_outlet_sleeve = 156.02, sigma_outlet_sleeve = 3.6099E7, rho_outlet_sleeve = 2838.6, Cp_inlet_sleeve = 889.79, k_inlet_sleeve = 162.82, sigma_inlet_sleeve = 4.038E7, rho_inlet_sleeve = 2689.4) (degC), Point: 270Temperature (Cp_Al = 930.23, k_Al = 171.29, sigma_Al = 3.5225E7, rho_Al = 2599.4, Cp_inlet = 793.15, k_inlet = 143.46, sigma_inlet = 3.9894E7, rho_inlet = 2689.8, Cp_outlet = 946.24, k_outlet = 168.63, sigma_outlet = 3.3689E7, rho_outlet = 2676.9, Cp_outlet_sleeve = 868.74, k_outlet_sleeve = 156.02, sigma_outlet_sleeve = 3.6099E7, rho_outlet_sleeve = 2838.6, Cp_inlet_sleeve = 889.79, k_inlet_sleeve = 162.82, sigma_inlet_sleeve = 4.038E7, rho_inlet_sleeve = 2689.4) (degC), Point: 273Temperature (Cp_Al = 930.23, k_Al = 171.29, sigma_Al = 3.5225E7, rho_Al = 2599.4, Cp_inlet = 793.15, k_inlet = 143.46, sigma_inlet = 3.9894E7, rho_inlet = 2689.8, Cp_outlet = 946.24, k_outlet = 168.63, sigma_outlet = 3.3689E7, rho_outlet = 2676.9, Cp_outlet_sleeve = 868.74, k_outlet_sleeve = 156.02, sigma_outlet_sleeve = 3.6099E7, rho_outlet_sleeve = 2838.6, Cp_inlet_sleeve = 889.79, k_inlet_sleeve = 162.82, sigma_inlet_sleeve = 4.038E7, rho_inlet_sleeve = 2689.4) (degC), Point: 275
0                        21.56504565845745        21.01102245153095        21.132747611549917       21.00800573842281        21.013711516246474       21.107212864844314       21.008711535803343       21.025535375311563       21.001441999050257       21.02431397427688        21.001231709192382       21.00065821400233        21.009439177494983       21.000109773045892       21.007587179426707       21.0184891439211         21.000051648285933       21.01162130730296        21.000665438284557       21.000266611605753       21.001769243772685       21.000156294619273       21.000231554474396       21.008730678288202       21.117624252705298       21.01316543345922        21.54324258568181        21.007920134505582       21.145741227642475       21.013945820564288       21.628739420473153
3                        290.5862614381309        255.16438897968135       264.01317271758944       259.07488924495794       261.0245098529448        274.2651267328507        272.81555500492914       260.4062692287491        255.54799216226036       266.83378641837544       269.0154999599399        260.49403302316887       257.719359896827         244.73096517340173       249.6875592778042        223.03623897616626       218.630659822511         227.3828213956055        228.7523919835832        222.4360440368763        221.5719745094127        215.13405302618037       217.723714079959         274.91412780946496       276.7815556443145        262.6229019918228        295.1195813860429        260.9536374260489        266.177322827721         254.83944299509926       295.3340618820466
6                        411.62554332885213       374.7490251359261        386.895019450861         382.52952370901846       379.62436628527655       398.14486020049594       397.8718695642708        380.9154764024455        373.99792116848323       390.6122563222847        393.9746009671761        385.43592556515205       381.4841592288153        363.1560119138819        370.16333974455927       343.0807831143171        337.15897208316096       349.36111793976806       351.33110871360486       344.77438318587224       343.36190842147425       333.6242513352847        337.6820832922724        399.7712444228956        400.434052292778         380.8963892221959        415.4688061725045        382.26918761619106       386.9091925243522        372.0649745336599        414.1129200571801
9                        484.85634659229504       447.0525988673412        461.78957726379724       458.100984981442         444.1202548623269        465.99845441775665       466.6889054971623        446.4362918030598        438.4038315988388        458.4104258408172        462.7391790379056        454.1962895963828        449.27927263664037       427.556001907011         435.668490524513         415.52273510033456       408.6323947391753        423.53992539266073       426.2119779141003        419.7475671943953        417.6649976130859        405.3179507567937        410.31354531226657       468.48963671681963       468.1650720552519        445.204981309677         480.90008418980904       456.52745074383824       460.4711814436075        442.87603530363367       485.91898711245733
12                       535.0391441028902        496.5945655480623        513.3123329637662        510.2123620444545        485.931550369285         510.0290301732375        511.42274545299495       488.8666343399998        480.1576616709326        502.4069203099108        507.4410595573145        498.90002609889984       493.2778858445581        469.31054305176974       478.09221935777566       465.2322964318639        457.6725927918768        474.6422841316412        477.92259472030617       471.5337473043353        468.8588659761573        454.5038793827522        460.14903330303855       513.1691458575148        512.1233507764257        486.90099767219715       523.2769609606497        507.8995935203035        511.23066500304014       491.5278029649659        535.2594969202548
15                       573.3720769560337        534.4487950696576        552.7332101266196        550.1282278934146        517.3628022269851        543.0459956009072        544.9656567633043        520.7203400911966        511.5494787886987        535.4009878794793        540.9626346265526        532.4260624207855        526.276393777697         500.70588506510774       509.9439765818523        503.2586042505676        495.2000558869794        513.7954094017389        517.5859410846292        511.27985652991003       508.1016286523944        492.14987592635237       498.2814569255088        546.6796629610278        545.0943113544022        518.2561212768745        555.096661437712         547.3850117230709        550.1968656609915        528.8244862369463        573.0705301339323
18                       603.9575713340129        564.6658253219556        584.2194903405106        582.0357161199893        542.2901579160272        569.1426723256361        571.4665506452897        545.9460619163021        536.4498156510198        561.4824190025122        567.4494152012273        558.9180277883921        552.3628110741939        525.610479936858         535.1697795418797        533.643781448729         525.2024013709043        545.1105717272932        549.3343735130009        543.1131864329129        539.5032394773162        522.2521669141572        528.7588841654272        573.162010240774         571.1619312080489        543.1331114702663        580.3006280524465        579.0545198642575        581.4220359325221        558.6962843801646        603.3376653482708
21                       629.8814464871233        590.2918977736771        610.9090862788411        609.0895469085174        563.5262796821903        591.2940533109702        593.9434154422606        567.4090972840282        557.6668518625702        583.6233639070425        589.9166675788671        581.3903396122815        574.5085381720895        546.8316240570433        556.6336013729824        559.4309854267473        550.6812113263201        571.68614301265          576.2839505590616        570.1440633345854        566.1590294722398        547.8165588239864        554.6266685785229        595.6283438019288        593.2943776621902        564.3347187514808        601.7491439755083        605.9782976557896        607.9604743242775        584.1017398534434        629.0616880885567
24                       652.8606607289083        613.0215867908281        634.5515876645919        633.050830057071         582.5433854519201        611.0622498339842        613.9838065580924        586.6091409506496        576.6700914807652        603.3842374067839        609.9503375882558        601.4287004362257        594.2738020192892        565.8386199765225        575.8346551501586        582.3132332325969        573.3058954961617        595.2496728804257        600.1742984009437        594.1092507212261        589.7951497534484        570.5151115956824        577.5793085602785        615.6630307451746        613.049950968767         583.3274901819206        620.939183571316         629.8708148364817        631.5154771975099        606.686290235649         651.9120976675273
27                       673.8594531731814        633.8065881622016        656.1310448475712        654.9110475417357        600.1335584926496        629.288320160066         632.4432318542713        604.3525338887437        594.2499201216161        621.6050468063601        628.4049457788259        619.8875804233166        612.4985888413971        583.421846729822         593.5791083548139        603.2406547344585        594.0132641154939        616.7723436604408        621.9844197542795        615.9869857707206        611.3827819206412        591.286799122514         598.5684565224764        634.1197099808387        631.2674552874962        600.9000804525002        638.6755096925743        651.697377834127         653.0448992818602        627.3731788561038        672.8258262542026
