% Model:              brazing.mph
% Version:            COMSOL 5.3.0.223
% Date:               Oct 24 2018, 05:41
% Table:              Table 3 - 
% Time (s)               Temperature (Cp_Al = 507.8, k_Al = 89.36, sigma_Al = 1.1962E7, rho_Al = 3285.1, Cp_inlet = 1417.7, k_inlet = 130.81, sigma_inlet = 3.8187E7, rho_inlet = 1151.6, Cp_outlet = 465.94, k_outlet = 117.76, sigma_outlet = 2.6676E7, rho_outlet = 3987.5, Cp_outlet_sleeve = 1095.1, k_outlet_sleeve = 214.95, sigma_outlet_sleeve = 2.8121E7, rho_outlet_sleeve = 469.55, Cp_inlet_sleeve = 915.08, k_inlet_sleeve = 259.96, sigma_inlet_sleeve = 2.5511E7, rho_inlet_sleeve = 1736.2) (degC), Point: 55Temperature (Cp_Al = 507.8, k_Al = 89.36, sigma_Al = 1.1962E7, rho_Al = 3285.1, Cp_inlet = 1417.7, k_inlet = 130.81, sigma_inlet = 3.8187E7, rho_inlet = 1151.6, Cp_outlet = 465.94, k_outlet = 117.76, sigma_outlet = 2.6676E7, rho_outlet = 3987.5, Cp_outlet_sleeve = 1095.1, k_outlet_sleeve = 214.95, sigma_outlet_sleeve = 2.8121E7, rho_outlet_sleeve = 469.55, Cp_inlet_sleeve = 915.08, k_inlet_sleeve = 259.96, sigma_inlet_sleeve = 2.5511E7, rho_inlet_sleeve = 1736.2) (degC), Point: 56Temperature (Cp_Al = 507.8, k_Al = 89.36, sigma_Al = 1.1962E7, rho_Al = 3285.1, Cp_inlet = 1417.7, k_inlet = 130.81, sigma_inlet = 3.8187E7, rho_inlet = 1151.6, Cp_outlet = 465.94, k_outlet = 117.76, sigma_outlet = 2.6676E7, rho_outlet = 3987.5, Cp_outlet_sleeve = 1095.1, k_outlet_sleeve = 214.95, sigma_outlet_sleeve = 2.8121E7, rho_outlet_sleeve = 469.55, Cp_inlet_sleeve = 915.08, k_inlet_sleeve = 259.96, sigma_inlet_sleeve = 2.5511E7, rho_inlet_sleeve = 1736.2) (degC), Point: 60Temperature (Cp_Al = 507.8, k_Al = 89.36, sigma_Al = 1.1962E7, rho_Al = 3285.1, Cp_inlet = 1417.7, k_inlet = 130.81, sigma_inlet = 3.8187E7, rho_inlet = 1151.6, Cp_outlet = 465.94, k_outlet = 117.76, sigma_outlet = 2.6676E7, rho_outlet = 3987.5, Cp_outlet_sleeve = 1095.1, k_outlet_sleeve = 214.95, sigma_outlet_sleeve = 2.8121E7, rho_outlet_sleeve = 469.55, Cp_inlet_sleeve = 915.08, k_inlet_sleeve = 259.96, sigma_inlet_sleeve = 2.5511E7, rho_inlet_sleeve = 1736.2) (degC), Point: 69Temperature (Cp_Al = 507.8, k_Al = 89.36, sigma_Al = 1.1962E7, rho_Al = 3285.1, Cp_inlet = 1417.7, k_inlet = 130.81, sigma_inlet = 3.8187E7, rho_inlet = 1151.6, Cp_outlet = 465.94, k_outlet = 117.76, sigma_outlet = 2.6676E7, rho_outlet = 3987.5, Cp_outlet_sleeve = 1095.1, k_outlet_sleeve = 214.95, sigma_outlet_sleeve = 2.8121E7, rho_outlet_sleeve = 469.55, Cp_inlet_sleeve = 915.08, k_inlet_sleeve = 259.96, sigma_inlet_sleeve = 2.5511E7, rho_inlet_sleeve = 1736.2) (degC), Point: 90Temperature (Cp_Al = 507.8, k_Al = 89.36, sigma_Al = 1.1962E7, rho_Al = 3285.1, Cp_inlet = 1417.7, k_inlet = 130.81, sigma_inlet = 3.8187E7, rho_inlet = 1151.6, Cp_outlet = 465.94, k_outlet = 117.76, sigma_outlet = 2.6676E7, rho_outlet = 3987.5, Cp_outlet_sleeve = 1095.1, k_outlet_sleeve = 214.95, sigma_outlet_sleeve = 2.8121E7, rho_outlet_sleeve = 469.55, Cp_inlet_sleeve = 915.08, k_inlet_sleeve = 259.96, sigma_inlet_sleeve = 2.5511E7, rho_inlet_sleeve = 1736.2) (degC), Point: 98Temperature (Cp_Al = 507.8, k_Al = 89.36, sigma_Al = 1.1962E7, rho_Al = 3285.1, Cp_inlet = 1417.7, k_inlet = 130.81, sigma_inlet = 3.8187E7, rho_inlet = 1151.6, Cp_outlet = 465.94, k_outlet = 117.76, sigma_outlet = 2.6676E7, rho_outlet = 3987.5, Cp_outlet_sleeve = 1095.1, k_outlet_sleeve = 214.95, sigma_outlet_sleeve = 2.8121E7, rho_outlet_sleeve = 469.55, Cp_inlet_sleeve = 915.08, k_inlet_sleeve = 259.96, sigma_inlet_sleeve = 2.5511E7, rho_inlet_sleeve = 1736.2) (degC), Point: 102Temperature (Cp_Al = 507.8, k_Al = 89.36, sigma_Al = 1.1962E7, rho_Al = 3285.1, Cp_inlet = 1417.7, k_inlet = 130.81, sigma_inlet = 3.8187E7, rho_inlet = 1151.6, Cp_outlet = 465.94, k_outlet = 117.76, sigma_outlet = 2.6676E7, rho_outlet = 3987.5, Cp_outlet_sleeve = 1095.1, k_outlet_sleeve = 214.95, sigma_outlet_sleeve = 2.8121E7, rho_outlet_sleeve = 469.55, Cp_inlet_sleeve = 915.08, k_inlet_sleeve = 259.96, sigma_inlet_sleeve = 2.5511E7, rho_inlet_sleeve = 1736.2) (degC), Point: 127Temperature (Cp_Al = 507.8, k_Al = 89.36, sigma_Al = 1.1962E7, rho_Al = 3285.1, Cp_inlet = 1417.7, k_inlet = 130.81, sigma_inlet = 3.8187E7, rho_inlet = 1151.6, Cp_outlet = 465.94, k_outlet = 117.76, sigma_outlet = 2.6676E7, rho_outlet = 3987.5, Cp_outlet_sleeve = 1095.1, k_outlet_sleeve = 214.95, sigma_outlet_sleeve = 2.8121E7, rho_outlet_sleeve = 469.55, Cp_inlet_sleeve = 915.08, k_inlet_sleeve = 259.96, sigma_inlet_sleeve = 2.5511E7, rho_inlet_sleeve = 1736.2) (degC), Point: 128Temperature (Cp_Al = 507.8, k_Al = 89.36, sigma_Al = 1.1962E7, rho_Al = 3285.1, Cp_inlet = 1417.7, k_inlet = 130.81, sigma_inlet = 3.8187E7, rho_inlet = 1151.6, Cp_outlet = 465.94, k_outlet = 117.76, sigma_outlet = 2.6676E7, rho_outlet = 3987.5, Cp_outlet_sleeve = 1095.1, k_outlet_sleeve = 214.95, sigma_outlet_sleeve = 2.8121E7, rho_outlet_sleeve = 469.55, Cp_inlet_sleeve = 915.08, k_inlet_sleeve = 259.96, sigma_inlet_sleeve = 2.5511E7, rho_inlet_sleeve = 1736.2) (degC), Point: 134Temperature (Cp_Al = 507.8, k_Al = 89.36, sigma_Al = 1.1962E7, rho_Al = 3285.1, Cp_inlet = 1417.7, k_inlet = 130.81, sigma_inlet = 3.8187E7, rho_inlet = 1151.6, Cp_outlet = 465.94, k_outlet = 117.76, sigma_outlet = 2.6676E7, rho_outlet = 3987.5, Cp_outlet_sleeve = 1095.1, k_outlet_sleeve = 214.95, sigma_outlet_sleeve = 2.8121E7, rho_outlet_sleeve = 469.55, Cp_inlet_sleeve = 915.08, k_inlet_sleeve = 259.96, sigma_inlet_sleeve = 2.5511E7, rho_inlet_sleeve = 1736.2) (degC), Point: 138Temperature (Cp_Al = 507.8, k_Al = 89.36, sigma_Al = 1.1962E7, rho_Al = 3285.1, Cp_inlet = 1417.7, k_inlet = 130.81, sigma_inlet = 3.8187E7, rho_inlet = 1151.6, Cp_outlet = 465.94, k_outlet = 117.76, sigma_outlet = 2.6676E7, rho_outlet = 3987.5, Cp_outlet_sleeve = 1095.1, k_outlet_sleeve = 214.95, sigma_outlet_sleeve = 2.8121E7, rho_outlet_sleeve = 469.55, Cp_inlet_sleeve = 915.08, k_inlet_sleeve = 259.96, sigma_inlet_sleeve = 2.5511E7, rho_inlet_sleeve = 1736.2) (degC), Point: 151Temperature (Cp_Al = 507.8, k_Al = 89.36, sigma_Al = 1.1962E7, rho_Al = 3285.1, Cp_inlet = 1417.7, k_inlet = 130.81, sigma_inlet = 3.8187E7, rho_inlet = 1151.6, Cp_outlet = 465.94, k_outlet = 117.76, sigma_outlet = 2.6676E7, rho_outlet = 3987.5, Cp_outlet_sleeve = 1095.1, k_outlet_sleeve = 214.95, sigma_outlet_sleeve = 2.8121E7, rho_outlet_sleeve = 469.55, Cp_inlet_sleeve = 915.08, k_inlet_sleeve = 259.96, sigma_inlet_sleeve = 2.5511E7, rho_inlet_sleeve = 1736.2) (degC), Point: 154Temperature (Cp_Al = 507.8, k_Al = 89.36, sigma_Al = 1.1962E7, rho_Al = 3285.1, Cp_inlet = 1417.7, k_inlet = 130.81, sigma_inlet = 3.8187E7, rho_inlet = 1151.6, Cp_outlet = 465.94, k_outlet = 117.76, sigma_outlet = 2.6676E7, rho_outlet = 3987.5, Cp_outlet_sleeve = 1095.1, k_outlet_sleeve = 214.95, sigma_outlet_sleeve = 2.8121E7, rho_outlet_sleeve = 469.55, Cp_inlet_sleeve = 915.08, k_inlet_sleeve = 259.96, sigma_inlet_sleeve = 2.5511E7, rho_inlet_sleeve = 1736.2) (degC), Point: 159Temperature (Cp_Al = 507.8, k_Al = 89.36, sigma_Al = 1.1962E7, rho_Al = 3285.1, Cp_inlet = 1417.7, k_inlet = 130.81, sigma_inlet = 3.8187E7, rho_inlet = 1151.6, Cp_outlet = 465.94, k_outlet = 117.76, sigma_outlet = 2.6676E7, rho_outlet = 3987.5, Cp_outlet_sleeve = 1095.1, k_outlet_sleeve = 214.95, sigma_outlet_sleeve = 2.8121E7, rho_outlet_sleeve = 469.55, Cp_inlet_sleeve = 915.08, k_inlet_sleeve = 259.96, sigma_inlet_sleeve = 2.5511E7, rho_inlet_sleeve = 1736.2) (degC), Point: 163Temperature (Cp_Al = 507.8, k_Al = 89.36, sigma_Al = 1.1962E7, rho_Al = 3285.1, Cp_inlet = 1417.7, k_inlet = 130.81, sigma_inlet = 3.8187E7, rho_inlet = 1151.6, Cp_outlet = 465.94, k_outlet = 117.76, sigma_outlet = 2.6676E7, rho_outlet = 3987.5, Cp_outlet_sleeve = 1095.1, k_outlet_sleeve = 214.95, sigma_outlet_sleeve = 2.8121E7, rho_outlet_sleeve = 469.55, Cp_inlet_sleeve = 915.08, k_inlet_sleeve = 259.96, sigma_inlet_sleeve = 2.5511E7, rho_inlet_sleeve = 1736.2) (degC), Point: 167Temperature (Cp_Al = 507.8, k_Al = 89.36, sigma_Al = 1.1962E7, rho_Al = 3285.1, Cp_inlet = 1417.7, k_inlet = 130.81, sigma_inlet = 3.8187E7, rho_inlet = 1151.6, Cp_outlet = 465.94, k_outlet = 117.76, sigma_outlet = 2.6676E7, rho_outlet = 3987.5, Cp_outlet_sleeve = 1095.1, k_outlet_sleeve = 214.95, sigma_outlet_sleeve = 2.8121E7, rho_outlet_sleeve = 469.55, Cp_inlet_sleeve = 915.08, k_inlet_sleeve = 259.96, sigma_inlet_sleeve = 2.5511E7, rho_inlet_sleeve = 1736.2) (degC), Point: 168Temperature (Cp_Al = 507.8, k_Al = 89.36, sigma_Al = 1.1962E7, rho_Al = 3285.1, Cp_inlet = 1417.7, k_inlet = 130.81, sigma_inlet = 3.8187E7, rho_inlet = 1151.6, Cp_outlet = 465.94, k_outlet = 117.76, sigma_outlet = 2.6676E7, rho_outlet = 3987.5, Cp_outlet_sleeve = 1095.1, k_outlet_sleeve = 214.95, sigma_outlet_sleeve = 2.8121E7, rho_outlet_sleeve = 469.55, Cp_inlet_sleeve = 915.08, k_inlet_sleeve = 259.96, sigma_inlet_sleeve = 2.5511E7, rho_inlet_sleeve = 1736.2) (degC), Point: 172Temperature (Cp_Al = 507.8, k_Al = 89.36, sigma_Al = 1.1962E7, rho_Al = 3285.1, Cp_inlet = 1417.7, k_inlet = 130.81, sigma_inlet = 3.8187E7, rho_inlet = 1151.6, Cp_outlet = 465.94, k_outlet = 117.76, sigma_outlet = 2.6676E7, rho_outlet = 3987.5, Cp_outlet_sleeve = 1095.1, k_outlet_sleeve = 214.95, sigma_outlet_sleeve = 2.8121E7, rho_outlet_sleeve = 469.55, Cp_inlet_sleeve = 915.08, k_inlet_sleeve = 259.96, sigma_inlet_sleeve = 2.5511E7, rho_inlet_sleeve = 1736.2) (degC), Point: 181Temperature (Cp_Al = 507.8, k_Al = 89.36, sigma_Al = 1.1962E7, rho_Al = 3285.1, Cp_inlet = 1417.7, k_inlet = 130.81, sigma_inlet = 3.8187E7, rho_inlet = 1151.6, Cp_outlet = 465.94, k_outlet = 117.76, sigma_outlet = 2.6676E7, rho_outlet = 3987.5, Cp_outlet_sleeve = 1095.1, k_outlet_sleeve = 214.95, sigma_outlet_sleeve = 2.8121E7, rho_outlet_sleeve = 469.55, Cp_inlet_sleeve = 915.08, k_inlet_sleeve = 259.96, sigma_inlet_sleeve = 2.5511E7, rho_inlet_sleeve = 1736.2) (degC), Point: 201Temperature (Cp_Al = 507.8, k_Al = 89.36, sigma_Al = 1.1962E7, rho_Al = 3285.1, Cp_inlet = 1417.7, k_inlet = 130.81, sigma_inlet = 3.8187E7, rho_inlet = 1151.6, Cp_outlet = 465.94, k_outlet = 117.76, sigma_outlet = 2.6676E7, rho_outlet = 3987.5, Cp_outlet_sleeve = 1095.1, k_outlet_sleeve = 214.95, sigma_outlet_sleeve = 2.8121E7, rho_outlet_sleeve = 469.55, Cp_inlet_sleeve = 915.08, k_inlet_sleeve = 259.96, sigma_inlet_sleeve = 2.5511E7, rho_inlet_sleeve = 1736.2) (degC), Point: 210Temperature (Cp_Al = 507.8, k_Al = 89.36, sigma_Al = 1.1962E7, rho_Al = 3285.1, Cp_inlet = 1417.7, k_inlet = 130.81, sigma_inlet = 3.8187E7, rho_inlet = 1151.6, Cp_outlet = 465.94, k_outlet = 117.76, sigma_outlet = 2.6676E7, rho_outlet = 3987.5, Cp_outlet_sleeve = 1095.1, k_outlet_sleeve = 214.95, sigma_outlet_sleeve = 2.8121E7, rho_outlet_sleeve = 469.55, Cp_inlet_sleeve = 915.08, k_inlet_sleeve = 259.96, sigma_inlet_sleeve = 2.5511E7, rho_inlet_sleeve = 1736.2) (degC), Point: 213Temperature (Cp_Al = 507.8, k_Al = 89.36, sigma_Al = 1.1962E7, rho_Al = 3285.1, Cp_inlet = 1417.7, k_inlet = 130.81, sigma_inlet = 3.8187E7, rho_inlet = 1151.6, Cp_outlet = 465.94, k_outlet = 117.76, sigma_outlet = 2.6676E7, rho_outlet = 3987.5, Cp_outlet_sleeve = 1095.1, k_outlet_sleeve = 214.95, sigma_outlet_sleeve = 2.8121E7, rho_outlet_sleeve = 469.55, Cp_inlet_sleeve = 915.08, k_inlet_sleeve = 259.96, sigma_inlet_sleeve = 2.5511E7, rho_inlet_sleeve = 1736.2) (degC), Point: 215Temperature (Cp_Al = 507.8, k_Al = 89.36, sigma_Al = 1.1962E7, rho_Al = 3285.1, Cp_inlet = 1417.7, k_inlet = 130.81, sigma_inlet = 3.8187E7, rho_inlet = 1151.6, Cp_outlet = 465.94, k_outlet = 117.76, sigma_outlet = 2.6676E7, rho_outlet = 3987.5, Cp_outlet_sleeve = 1095.1, k_outlet_sleeve = 214.95, sigma_outlet_sleeve = 2.8121E7, rho_outlet_sleeve = 469.55, Cp_inlet_sleeve = 915.08, k_inlet_sleeve = 259.96, sigma_inlet_sleeve = 2.5511E7, rho_inlet_sleeve = 1736.2) (degC), Point: 229Temperature (Cp_Al = 507.8, k_Al = 89.36, sigma_Al = 1.1962E7, rho_Al = 3285.1, Cp_inlet = 1417.7, k_inlet = 130.81, sigma_inlet = 3.8187E7, rho_inlet = 1151.6, Cp_outlet = 465.94, k_outlet = 117.76, sigma_outlet = 2.6676E7, rho_outlet = 3987.5, Cp_outlet_sleeve = 1095.1, k_outlet_sleeve = 214.95, sigma_outlet_sleeve = 2.8121E7, rho_outlet_sleeve = 469.55, Cp_inlet_sleeve = 915.08, k_inlet_sleeve = 259.96, sigma_inlet_sleeve = 2.5511E7, rho_inlet_sleeve = 1736.2) (degC), Point: 232Temperature (Cp_Al = 507.8, k_Al = 89.36, sigma_Al = 1.1962E7, rho_Al = 3285.1, Cp_inlet = 1417.7, k_inlet = 130.81, sigma_inlet = 3.8187E7, rho_inlet = 1151.6, Cp_outlet = 465.94, k_outlet = 117.76, sigma_outlet = 2.6676E7, rho_outlet = 3987.5, Cp_outlet_sleeve = 1095.1, k_outlet_sleeve = 214.95, sigma_outlet_sleeve = 2.8121E7, rho_outlet_sleeve = 469.55, Cp_inlet_sleeve = 915.08, k_inlet_sleeve = 259.96, sigma_inlet_sleeve = 2.5511E7, rho_inlet_sleeve = 1736.2) (degC), Point: 239Temperature (Cp_Al = 507.8, k_Al = 89.36, sigma_Al = 1.1962E7, rho_Al = 3285.1, Cp_inlet = 1417.7, k_inlet = 130.81, sigma_inlet = 3.8187E7, rho_inlet = 1151.6, Cp_outlet = 465.94, k_outlet = 117.76, sigma_outlet = 2.6676E7, rho_outlet = 3987.5, Cp_outlet_sleeve = 1095.1, k_outlet_sleeve = 214.95, sigma_outlet_sleeve = 2.8121E7, rho_outlet_sleeve = 469.55, Cp_inlet_sleeve = 915.08, k_inlet_sleeve = 259.96, sigma_inlet_sleeve = 2.5511E7, rho_inlet_sleeve = 1736.2) (degC), Point: 252Temperature (Cp_Al = 507.8, k_Al = 89.36, sigma_Al = 1.1962E7, rho_Al = 3285.1, Cp_inlet = 1417.7, k_inlet = 130.81, sigma_inlet = 3.8187E7, rho_inlet = 1151.6, Cp_outlet = 465.94, k_outlet = 117.76, sigma_outlet = 2.6676E7, rho_outlet = 3987.5, Cp_outlet_sleeve = 1095.1, k_outlet_sleeve = 214.95, sigma_outlet_sleeve = 2.8121E7, rho_outlet_sleeve = 469.55, Cp_inlet_sleeve = 915.08, k_inlet_sleeve = 259.96, sigma_inlet_sleeve = 2.5511E7, rho_inlet_sleeve = 1736.2) (degC), Point: 261Temperature (Cp_Al = 507.8, k_Al = 89.36, sigma_Al = 1.1962E7, rho_Al = 3285.1, Cp_inlet = 1417.7, k_inlet = 130.81, sigma_inlet = 3.8187E7, rho_inlet = 1151.6, Cp_outlet = 465.94, k_outlet = 117.76, sigma_outlet = 2.6676E7, rho_outlet = 3987.5, Cp_outlet_sleeve = 1095.1, k_outlet_sleeve = 214.95, sigma_outlet_sleeve = 2.8121E7, rho_outlet_sleeve = 469.55, Cp_inlet_sleeve = 915.08, k_inlet_sleeve = 259.96, sigma_inlet_sleeve = 2.5511E7, rho_inlet_sleeve = 1736.2) (degC), Point: 270Temperature (Cp_Al = 507.8, k_Al = 89.36, sigma_Al = 1.1962E7, rho_Al = 3285.1, Cp_inlet = 1417.7, k_inlet = 130.81, sigma_inlet = 3.8187E7, rho_inlet = 1151.6, Cp_outlet = 465.94, k_outlet = 117.76, sigma_outlet = 2.6676E7, rho_outlet = 3987.5, Cp_outlet_sleeve = 1095.1, k_outlet_sleeve = 214.95, sigma_outlet_sleeve = 2.8121E7, rho_outlet_sleeve = 469.55, Cp_inlet_sleeve = 915.08, k_inlet_sleeve = 259.96, sigma_inlet_sleeve = 2.5511E7, rho_inlet_sleeve = 1736.2) (degC), Point: 273Temperature (Cp_Al = 507.8, k_Al = 89.36, sigma_Al = 1.1962E7, rho_Al = 3285.1, Cp_inlet = 1417.7, k_inlet = 130.81, sigma_inlet = 3.8187E7, rho_inlet = 1151.6, Cp_outlet = 465.94, k_outlet = 117.76, sigma_outlet = 2.6676E7, rho_outlet = 3987.5, Cp_outlet_sleeve = 1095.1, k_outlet_sleeve = 214.95, sigma_outlet_sleeve = 2.8121E7, rho_outlet_sleeve = 469.55, Cp_inlet_sleeve = 915.08, k_inlet_sleeve = 259.96, sigma_inlet_sleeve = 2.5511E7, rho_inlet_sleeve = 1736.2) (degC), Point: 275
0                        22.959690819487264       21.05375576583168        21.13884510478431        21.01042789010046        21.021412293737285       21.112069356061227       21.010368416463848       21.02789092629314        21.002487545430597       21.02527257335538        21.001465727078028       21.000774753394637       21.009700205609704       21.0001501615165         21.008412291309128       21.06512709118499        21.000189967023232       21.011942267032623       21.000840206080966       21.00033724298885        21.001825833778184       21.00056951238298        21.001003132286257       21.010454783842647       21.123047236676825       21.020795874669943       21.6148921672185         21.010360495108728       21.152438659310747       21.057102191926845       23.175565666463285
3                        424.55395799757514       398.90644526738197       409.3832644279746        404.69775796338865       347.0669707253877        359.75049919767855       358.16665075639753       346.3759461253569        343.261126730372         352.2912719790477        354.2886376535289        345.52877471376667       343.0001516453224        332.84161911492765       336.35521583581874       364.1196908338675        360.0818543219068        366.72053070689174       367.5575051786151        360.3261948115627        360.4204147846932        356.95147331664316       359.57707975654046       359.7373618180093        361.675794908781         347.6801179612804        367.105943156202         403.16808631794106       407.8364403531806        393.68147296644133       423.4605691234216
6                        568.9040173342491        541.8098473045537        558.158798074624         555.0932095533313        492.33065890074727       509.96943052565166       509.68444247158834       492.7670768352591        488.2861565167219        502.3496661671418        505.65474713319406       496.8309199856544        492.99399735536554       477.77748190714817       482.6566050227309        506.34310855971          500.7632063690662        513.5189292536459        516.0298264277961        508.8951993105958        507.3895772792555        497.98403719954274       502.1005048787275        510.9036077395191        511.4955021513614        492.3729177611615        513.199703578235         549.7242578713197        552.7356870035841        532.3348474511408        563.7371244521146
9                        652.5571984543881        624.7591284373349        644.1893497436301        642.155971579154         575.9261636329203        596.3559764796192        596.9911433228305        576.8988256328629        571.7424529115856        588.6452745191101        592.8763493384004        584.0290461598765        579.2649205530807        561.1969156484495        566.7496817379889        588.906486198403         582.5702985578981        598.5461212026851        602.1216566880413        594.9453887467729        592.4037112017489        579.8467641010077        584.7005373750316        598.0280143178559        597.666479836626         575.6508774641502        597.1721642336468        634.762049437546         636.7030002171362        612.9771756870094        645.1882385951745
12                       713.1340476228825        684.8860449059035        706.3376395803756        705.0223533875907        635.3929312653937        657.6487582058842        658.9334847143642        636.6960068382476        631.122164135973         649.8821324812277        654.7665774486592        645.9091726081115        640.4904912253463        620.557557417649         626.5262156114132        648.8394558219384        642.0194470687899        660.1120156806112        664.429914968429         657.2522450716563        653.9784906913989        639.3322105988946        644.660807796989         659.8641056665871        658.8298909201419        634.9230347869482        656.8734592170995        696.4863779026036        697.669443938636         671.7363626226247        704.4682991494825
15                       760.1929476848287        731.6401843267388        754.4979829128212        753.7103550018766        680.9001316336039        704.4094260122355        706.1699534697078        682.4176607255388        676.5728787769781        696.6071766398142        701.9700003553974        693.1096405292101        687.2115551376088        665.9993563598576        672.2375000911433        695.4985585933498        688.3509748340688        707.9173023738389        712.7813643617418        705.6385224086688        701.8194761298641        685.7055884066523        691.3577151165999        707.0374704163901        705.5108382374056        680.3074087079063        702.5360622198923        744.521573987737         745.1396136640722        717.656040048035         750.7424192284759
18                       799.9668296752042        771.1857405510438        795.1179611506369        794.7485941144813        719.0097463452702        743.4586919981715        745.5914238530295        720.6823541005649        714.6428663752093        735.6318472726955        741.3687310622543        732.5086104588306        726.2356096391964        704.0654066309813        710.4969035487533        734.9987755965863        727.6062981387698        748.2979932537775        753.5950463526516        746.5041337050849        742.2493684216483        725.0082338273891        730.9031208455539        746.4183614641533        744.5068241351714        718.3331613772932        740.7614012645778        785.1532932909055        785.3198833084508        756.6468533034182        789.9984288820648
21                       835.4701281003646        806.5051993492897        831.3136999886837        831.2930667355555        752.8696270580775        778.0701110839954        780.5085601613683        754.6641234940276        748.473527448742         770.2253916913979        776.2693710800814        767.410861003926         760.83004914492          737.8945814017359        744.4759374376029        770.3026216765464        762.7137113638975        784.3215660444308        789.9793530803278        782.9450918920767        778.3257158995901        760.1638741298872        766.2538233548249        781.3079493095075        779.0805620438465        752.1326104350093        774.715383557009         821.4276918618835        821.2168570551081        791.5745056976049        825.1382569046219
24                       868.0236119083025        838.906314128859         864.4484017427873        864.7242060684504        783.8554616351431        809.6726959330969        812.3669693283233        785.7491327420843        779.4375868061833        801.8148622055911        808.1156884705496        799.2594234409258        792.4211667581554        768.8585403362359        775.5597042215046        802.7083312074961        794.9573898272332        817.3302691800112        823.2942858756907        816.3160717702198        811.3863014591608        792.4540061594518        798.705015075191         813.147629890292         810.6562187229093        783.0744053654238        805.7805389717256        854.6780136239769        854.1463352743727        823.6951869691021        857.4332243214905
27                       898.4932543202896        869.2471862487015        895.41418753746          895.9449594496508        812.8679965501063        839.2003420246434        842.111107273507         814.8442665918179        808.4336699902063        831.3327562962078        837.8508360722564        828.9970127068028        821.9410042262829        797.8552566463073        804.654438918771         833.0664332106934        825.1792314004671        848.201988687896         854.4289781976939        847.5031170262004        842.3063776282662        822.7188200402856        829.1053309850407        842.8789444354621        840.1643315043356        812.0543658954692        834.8612593511633        885.7758258484547        884.9686445480774        853.8317124829915        887.7156121786542
