% Model:              brazing.mph
% Version:            COMSOL 5.3.0.223
% Date:               Oct 24 2018, 05:23
% Table:              Table 3 - 
% Time (s)               Temperature (Cp_Al = 737.85, k_Al = 110.46, sigma_Al = 5.9101E7, rho_Al = 2502.5, Cp_inlet = 710.01, k_inlet = 183.71, sigma_inlet = 2.4422E7, rho_inlet = 2078.6, Cp_outlet = 993.35, k_outlet = 120.26, sigma_outlet = 5.1187E7, rho_outlet = 1969.6, Cp_outlet_sleeve = 529.25, k_outlet_sleeve = 158.47, sigma_outlet_sleeve = 3.2218E7, rho_outlet_sleeve = 2923.7, Cp_inlet_sleeve = 820.35, k_inlet_sleeve = 118.44, sigma_inlet_sleeve = 5.8541E7, rho_inlet_sleeve = 2745.5) (degC), Point: 55Temperature (Cp_Al = 737.85, k_Al = 110.46, sigma_Al = 5.9101E7, rho_Al = 2502.5, Cp_inlet = 710.01, k_inlet = 183.71, sigma_inlet = 2.4422E7, rho_inlet = 2078.6, Cp_outlet = 993.35, k_outlet = 120.26, sigma_outlet = 5.1187E7, rho_outlet = 1969.6, Cp_outlet_sleeve = 529.25, k_outlet_sleeve = 158.47, sigma_outlet_sleeve = 3.2218E7, rho_outlet_sleeve = 2923.7, Cp_inlet_sleeve = 820.35, k_inlet_sleeve = 118.44, sigma_inlet_sleeve = 5.8541E7, rho_inlet_sleeve = 2745.5) (degC), Point: 56Temperature (Cp_Al = 737.85, k_Al = 110.46, sigma_Al = 5.9101E7, rho_Al = 2502.5, Cp_inlet = 710.01, k_inlet = 183.71, sigma_inlet = 2.4422E7, rho_inlet = 2078.6, Cp_outlet = 993.35, k_outlet = 120.26, sigma_outlet = 5.1187E7, rho_outlet = 1969.6, Cp_outlet_sleeve = 529.25, k_outlet_sleeve = 158.47, sigma_outlet_sleeve = 3.2218E7, rho_outlet_sleeve = 2923.7, Cp_inlet_sleeve = 820.35, k_inlet_sleeve = 118.44, sigma_inlet_sleeve = 5.8541E7, rho_inlet_sleeve = 2745.5) (degC), Point: 60Temperature (Cp_Al = 737.85, k_Al = 110.46, sigma_Al = 5.9101E7, rho_Al = 2502.5, Cp_inlet = 710.01, k_inlet = 183.71, sigma_inlet = 2.4422E7, rho_inlet = 2078.6, Cp_outlet = 993.35, k_outlet = 120.26, sigma_outlet = 5.1187E7, rho_outlet = 1969.6, Cp_outlet_sleeve = 529.25, k_outlet_sleeve = 158.47, sigma_outlet_sleeve = 3.2218E7, rho_outlet_sleeve = 2923.7, Cp_inlet_sleeve = 820.35, k_inlet_sleeve = 118.44, sigma_inlet_sleeve = 5.8541E7, rho_inlet_sleeve = 2745.5) (degC), Point: 69Temperature (Cp_Al = 737.85, k_Al = 110.46, sigma_Al = 5.9101E7, rho_Al = 2502.5, Cp_inlet = 710.01, k_inlet = 183.71, sigma_inlet = 2.4422E7, rho_inlet = 2078.6, Cp_outlet = 993.35, k_outlet = 120.26, sigma_outlet = 5.1187E7, rho_outlet = 1969.6, Cp_outlet_sleeve = 529.25, k_outlet_sleeve = 158.47, sigma_outlet_sleeve = 3.2218E7, rho_outlet_sleeve = 2923.7, Cp_inlet_sleeve = 820.35, k_inlet_sleeve = 118.44, sigma_inlet_sleeve = 5.8541E7, rho_inlet_sleeve = 2745.5) (degC), Point: 90Temperature (Cp_Al = 737.85, k_Al = 110.46, sigma_Al = 5.9101E7, rho_Al = 2502.5, Cp_inlet = 710.01, k_inlet = 183.71, sigma_inlet = 2.4422E7, rho_inlet = 2078.6, Cp_outlet = 993.35, k_outlet = 120.26, sigma_outlet = 5.1187E7, rho_outlet = 1969.6, Cp_outlet_sleeve = 529.25, k_outlet_sleeve = 158.47, sigma_outlet_sleeve = 3.2218E7, rho_outlet_sleeve = 2923.7, Cp_inlet_sleeve = 820.35, k_inlet_sleeve = 118.44, sigma_inlet_sleeve = 5.8541E7, rho_inlet_sleeve = 2745.5) (degC), Point: 98Temperature (Cp_Al = 737.85, k_Al = 110.46, sigma_Al = 5.9101E7, rho_Al = 2502.5, Cp_inlet = 710.01, k_inlet = 183.71, sigma_inlet = 2.4422E7, rho_inlet = 2078.6, Cp_outlet = 993.35, k_outlet = 120.26, sigma_outlet = 5.1187E7, rho_outlet = 1969.6, Cp_outlet_sleeve = 529.25, k_outlet_sleeve = 158.47, sigma_outlet_sleeve = 3.2218E7, rho_outlet_sleeve = 2923.7, Cp_inlet_sleeve = 820.35, k_inlet_sleeve = 118.44, sigma_inlet_sleeve = 5.8541E7, rho_inlet_sleeve = 2745.5) (degC), Point: 102Temperature (Cp_Al = 737.85, k_Al = 110.46, sigma_Al = 5.9101E7, rho_Al = 2502.5, Cp_inlet = 710.01, k_inlet = 183.71, sigma_inlet = 2.4422E7, rho_inlet = 2078.6, Cp_outlet = 993.35, k_outlet = 120.26, sigma_outlet = 5.1187E7, rho_outlet = 1969.6, Cp_outlet_sleeve = 529.25, k_outlet_sleeve = 158.47, sigma_outlet_sleeve = 3.2218E7, rho_outlet_sleeve = 2923.7, Cp_inlet_sleeve = 820.35, k_inlet_sleeve = 118.44, sigma_inlet_sleeve = 5.8541E7, rho_inlet_sleeve = 2745.5) (degC), Point: 127Temperature (Cp_Al = 737.85, k_Al = 110.46, sigma_Al = 5.9101E7, rho_Al = 2502.5, Cp_inlet = 710.01, k_inlet = 183.71, sigma_inlet = 2.4422E7, rho_inlet = 2078.6, Cp_outlet = 993.35, k_outlet = 120.26, sigma_outlet = 5.1187E7, rho_outlet = 1969.6, Cp_outlet_sleeve = 529.25, k_outlet_sleeve = 158.47, sigma_outlet_sleeve = 3.2218E7, rho_outlet_sleeve = 2923.7, Cp_inlet_sleeve = 820.35, k_inlet_sleeve = 118.44, sigma_inlet_sleeve = 5.8541E7, rho_inlet_sleeve = 2745.5) (degC), Point: 128Temperature (Cp_Al = 737.85, k_Al = 110.46, sigma_Al = 5.9101E7, rho_Al = 2502.5, Cp_inlet = 710.01, k_inlet = 183.71, sigma_inlet = 2.4422E7, rho_inlet = 2078.6, Cp_outlet = 993.35, k_outlet = 120.26, sigma_outlet = 5.1187E7, rho_outlet = 1969.6, Cp_outlet_sleeve = 529.25, k_outlet_sleeve = 158.47, sigma_outlet_sleeve = 3.2218E7, rho_outlet_sleeve = 2923.7, Cp_inlet_sleeve = 820.35, k_inlet_sleeve = 118.44, sigma_inlet_sleeve = 5.8541E7, rho_inlet_sleeve = 2745.5) (degC), Point: 134Temperature (Cp_Al = 737.85, k_Al = 110.46, sigma_Al = 5.9101E7, rho_Al = 2502.5, Cp_inlet = 710.01, k_inlet = 183.71, sigma_inlet = 2.4422E7, rho_inlet = 2078.6, Cp_outlet = 993.35, k_outlet = 120.26, sigma_outlet = 5.1187E7, rho_outlet = 1969.6, Cp_outlet_sleeve = 529.25, k_outlet_sleeve = 158.47, sigma_outlet_sleeve = 3.2218E7, rho_outlet_sleeve = 2923.7, Cp_inlet_sleeve = 820.35, k_inlet_sleeve = 118.44, sigma_inlet_sleeve = 5.8541E7, rho_inlet_sleeve = 2745.5) (degC), Point: 138Temperature (Cp_Al = 737.85, k_Al = 110.46, sigma_Al = 5.9101E7, rho_Al = 2502.5, Cp_inlet = 710.01, k_inlet = 183.71, sigma_inlet = 2.4422E7, rho_inlet = 2078.6, Cp_outlet = 993.35, k_outlet = 120.26, sigma_outlet = 5.1187E7, rho_outlet = 1969.6, Cp_outlet_sleeve = 529.25, k_outlet_sleeve = 158.47, sigma_outlet_sleeve = 3.2218E7, rho_outlet_sleeve = 2923.7, Cp_inlet_sleeve = 820.35, k_inlet_sleeve = 118.44, sigma_inlet_sleeve = 5.8541E7, rho_inlet_sleeve = 2745.5) (degC), Point: 151Temperature (Cp_Al = 737.85, k_Al = 110.46, sigma_Al = 5.9101E7, rho_Al = 2502.5, Cp_inlet = 710.01, k_inlet = 183.71, sigma_inlet = 2.4422E7, rho_inlet = 2078.6, Cp_outlet = 993.35, k_outlet = 120.26, sigma_outlet = 5.1187E7, rho_outlet = 1969.6, Cp_outlet_sleeve = 529.25, k_outlet_sleeve = 158.47, sigma_outlet_sleeve = 3.2218E7, rho_outlet_sleeve = 2923.7, Cp_inlet_sleeve = 820.35, k_inlet_sleeve = 118.44, sigma_inlet_sleeve = 5.8541E7, rho_inlet_sleeve = 2745.5) (degC), Point: 154Temperature (Cp_Al = 737.85, k_Al = 110.46, sigma_Al = 5.9101E7, rho_Al = 2502.5, Cp_inlet = 710.01, k_inlet = 183.71, sigma_inlet = 2.4422E7, rho_inlet = 2078.6, Cp_outlet = 993.35, k_outlet = 120.26, sigma_outlet = 5.1187E7, rho_outlet = 1969.6, Cp_outlet_sleeve = 529.25, k_outlet_sleeve = 158.47, sigma_outlet_sleeve = 3.2218E7, rho_outlet_sleeve = 2923.7, Cp_inlet_sleeve = 820.35, k_inlet_sleeve = 118.44, sigma_inlet_sleeve = 5.8541E7, rho_inlet_sleeve = 2745.5) (degC), Point: 159Temperature (Cp_Al = 737.85, k_Al = 110.46, sigma_Al = 5.9101E7, rho_Al = 2502.5, Cp_inlet = 710.01, k_inlet = 183.71, sigma_inlet = 2.4422E7, rho_inlet = 2078.6, Cp_outlet = 993.35, k_outlet = 120.26, sigma_outlet = 5.1187E7, rho_outlet = 1969.6, Cp_outlet_sleeve = 529.25, k_outlet_sleeve = 158.47, sigma_outlet_sleeve = 3.2218E7, rho_outlet_sleeve = 2923.7, Cp_inlet_sleeve = 820.35, k_inlet_sleeve = 118.44, sigma_inlet_sleeve = 5.8541E7, rho_inlet_sleeve = 2745.5) (degC), Point: 163Temperature (Cp_Al = 737.85, k_Al = 110.46, sigma_Al = 5.9101E7, rho_Al = 2502.5, Cp_inlet = 710.01, k_inlet = 183.71, sigma_inlet = 2.4422E7, rho_inlet = 2078.6, Cp_outlet = 993.35, k_outlet = 120.26, sigma_outlet = 5.1187E7, rho_outlet = 1969.6, Cp_outlet_sleeve = 529.25, k_outlet_sleeve = 158.47, sigma_outlet_sleeve = 3.2218E7, rho_outlet_sleeve = 2923.7, Cp_inlet_sleeve = 820.35, k_inlet_sleeve = 118.44, sigma_inlet_sleeve = 5.8541E7, rho_inlet_sleeve = 2745.5) (degC), Point: 167Temperature (Cp_Al = 737.85, k_Al = 110.46, sigma_Al = 5.9101E7, rho_Al = 2502.5, Cp_inlet = 710.01, k_inlet = 183.71, sigma_inlet = 2.4422E7, rho_inlet = 2078.6, Cp_outlet = 993.35, k_outlet = 120.26, sigma_outlet = 5.1187E7, rho_outlet = 1969.6, Cp_outlet_sleeve = 529.25, k_outlet_sleeve = 158.47, sigma_outlet_sleeve = 3.2218E7, rho_outlet_sleeve = 2923.7, Cp_inlet_sleeve = 820.35, k_inlet_sleeve = 118.44, sigma_inlet_sleeve = 5.8541E7, rho_inlet_sleeve = 2745.5) (degC), Point: 168Temperature (Cp_Al = 737.85, k_Al = 110.46, sigma_Al = 5.9101E7, rho_Al = 2502.5, Cp_inlet = 710.01, k_inlet = 183.71, sigma_inlet = 2.4422E7, rho_inlet = 2078.6, Cp_outlet = 993.35, k_outlet = 120.26, sigma_outlet = 5.1187E7, rho_outlet = 1969.6, Cp_outlet_sleeve = 529.25, k_outlet_sleeve = 158.47, sigma_outlet_sleeve = 3.2218E7, rho_outlet_sleeve = 2923.7, Cp_inlet_sleeve = 820.35, k_inlet_sleeve = 118.44, sigma_inlet_sleeve = 5.8541E7, rho_inlet_sleeve = 2745.5) (degC), Point: 172Temperature (Cp_Al = 737.85, k_Al = 110.46, sigma_Al = 5.9101E7, rho_Al = 2502.5, Cp_inlet = 710.01, k_inlet = 183.71, sigma_inlet = 2.4422E7, rho_inlet = 2078.6, Cp_outlet = 993.35, k_outlet = 120.26, sigma_outlet = 5.1187E7, rho_outlet = 1969.6, Cp_outlet_sleeve = 529.25, k_outlet_sleeve = 158.47, sigma_outlet_sleeve = 3.2218E7, rho_outlet_sleeve = 2923.7, Cp_inlet_sleeve = 820.35, k_inlet_sleeve = 118.44, sigma_inlet_sleeve = 5.8541E7, rho_inlet_sleeve = 2745.5) (degC), Point: 181Temperature (Cp_Al = 737.85, k_Al = 110.46, sigma_Al = 5.9101E7, rho_Al = 2502.5, Cp_inlet = 710.01, k_inlet = 183.71, sigma_inlet = 2.4422E7, rho_inlet = 2078.6, Cp_outlet = 993.35, k_outlet = 120.26, sigma_outlet = 5.1187E7, rho_outlet = 1969.6, Cp_outlet_sleeve = 529.25, k_outlet_sleeve = 158.47, sigma_outlet_sleeve = 3.2218E7, rho_outlet_sleeve = 2923.7, Cp_inlet_sleeve = 820.35, k_inlet_sleeve = 118.44, sigma_inlet_sleeve = 5.8541E7, rho_inlet_sleeve = 2745.5) (degC), Point: 201Temperature (Cp_Al = 737.85, k_Al = 110.46, sigma_Al = 5.9101E7, rho_Al = 2502.5, Cp_inlet = 710.01, k_inlet = 183.71, sigma_inlet = 2.4422E7, rho_inlet = 2078.6, Cp_outlet = 993.35, k_outlet = 120.26, sigma_outlet = 5.1187E7, rho_outlet = 1969.6, Cp_outlet_sleeve = 529.25, k_outlet_sleeve = 158.47, sigma_outlet_sleeve = 3.2218E7, rho_outlet_sleeve = 2923.7, Cp_inlet_sleeve = 820.35, k_inlet_sleeve = 118.44, sigma_inlet_sleeve = 5.8541E7, rho_inlet_sleeve = 2745.5) (degC), Point: 210Temperature (Cp_Al = 737.85, k_Al = 110.46, sigma_Al = 5.9101E7, rho_Al = 2502.5, Cp_inlet = 710.01, k_inlet = 183.71, sigma_inlet = 2.4422E7, rho_inlet = 2078.6, Cp_outlet = 993.35, k_outlet = 120.26, sigma_outlet = 5.1187E7, rho_outlet = 1969.6, Cp_outlet_sleeve = 529.25, k_outlet_sleeve = 158.47, sigma_outlet_sleeve = 3.2218E7, rho_outlet_sleeve = 2923.7, Cp_inlet_sleeve = 820.35, k_inlet_sleeve = 118.44, sigma_inlet_sleeve = 5.8541E7, rho_inlet_sleeve = 2745.5) (degC), Point: 213Temperature (Cp_Al = 737.85, k_Al = 110.46, sigma_Al = 5.9101E7, rho_Al = 2502.5, Cp_inlet = 710.01, k_inlet = 183.71, sigma_inlet = 2.4422E7, rho_inlet = 2078.6, Cp_outlet = 993.35, k_outlet = 120.26, sigma_outlet = 5.1187E7, rho_outlet = 1969.6, Cp_outlet_sleeve = 529.25, k_outlet_sleeve = 158.47, sigma_outlet_sleeve = 3.2218E7, rho_outlet_sleeve = 2923.7, Cp_inlet_sleeve = 820.35, k_inlet_sleeve = 118.44, sigma_inlet_sleeve = 5.8541E7, rho_inlet_sleeve = 2745.5) (degC), Point: 215Temperature (Cp_Al = 737.85, k_Al = 110.46, sigma_Al = 5.9101E7, rho_Al = 2502.5, Cp_inlet = 710.01, k_inlet = 183.71, sigma_inlet = 2.4422E7, rho_inlet = 2078.6, Cp_outlet = 993.35, k_outlet = 120.26, sigma_outlet = 5.1187E7, rho_outlet = 1969.6, Cp_outlet_sleeve = 529.25, k_outlet_sleeve = 158.47, sigma_outlet_sleeve = 3.2218E7, rho_outlet_sleeve = 2923.7, Cp_inlet_sleeve = 820.35, k_inlet_sleeve = 118.44, sigma_inlet_sleeve = 5.8541E7, rho_inlet_sleeve = 2745.5) (degC), Point: 229Temperature (Cp_Al = 737.85, k_Al = 110.46, sigma_Al = 5.9101E7, rho_Al = 2502.5, Cp_inlet = 710.01, k_inlet = 183.71, sigma_inlet = 2.4422E7, rho_inlet = 2078.6, Cp_outlet = 993.35, k_outlet = 120.26, sigma_outlet = 5.1187E7, rho_outlet = 1969.6, Cp_outlet_sleeve = 529.25, k_outlet_sleeve = 158.47, sigma_outlet_sleeve = 3.2218E7, rho_outlet_sleeve = 2923.7, Cp_inlet_sleeve = 820.35, k_inlet_sleeve = 118.44, sigma_inlet_sleeve = 5.8541E7, rho_inlet_sleeve = 2745.5) (degC), Point: 232Temperature (Cp_Al = 737.85, k_Al = 110.46, sigma_Al = 5.9101E7, rho_Al = 2502.5, Cp_inlet = 710.01, k_inlet = 183.71, sigma_inlet = 2.4422E7, rho_inlet = 2078.6, Cp_outlet = 993.35, k_outlet = 120.26, sigma_outlet = 5.1187E7, rho_outlet = 1969.6, Cp_outlet_sleeve = 529.25, k_outlet_sleeve = 158.47, sigma_outlet_sleeve = 3.2218E7, rho_outlet_sleeve = 2923.7, Cp_inlet_sleeve = 820.35, k_inlet_sleeve = 118.44, sigma_inlet_sleeve = 5.8541E7, rho_inlet_sleeve = 2745.5) (degC), Point: 239Temperature (Cp_Al = 737.85, k_Al = 110.46, sigma_Al = 5.9101E7, rho_Al = 2502.5, Cp_inlet = 710.01, k_inlet = 183.71, sigma_inlet = 2.4422E7, rho_inlet = 2078.6, Cp_outlet = 993.35, k_outlet = 120.26, sigma_outlet = 5.1187E7, rho_outlet = 1969.6, Cp_outlet_sleeve = 529.25, k_outlet_sleeve = 158.47, sigma_outlet_sleeve = 3.2218E7, rho_outlet_sleeve = 2923.7, Cp_inlet_sleeve = 820.35, k_inlet_sleeve = 118.44, sigma_inlet_sleeve = 5.8541E7, rho_inlet_sleeve = 2745.5) (degC), Point: 252Temperature (Cp_Al = 737.85, k_Al = 110.46, sigma_Al = 5.9101E7, rho_Al = 2502.5, Cp_inlet = 710.01, k_inlet = 183.71, sigma_inlet = 2.4422E7, rho_inlet = 2078.6, Cp_outlet = 993.35, k_outlet = 120.26, sigma_outlet = 5.1187E7, rho_outlet = 1969.6, Cp_outlet_sleeve = 529.25, k_outlet_sleeve = 158.47, sigma_outlet_sleeve = 3.2218E7, rho_outlet_sleeve = 2923.7, Cp_inlet_sleeve = 820.35, k_inlet_sleeve = 118.44, sigma_inlet_sleeve = 5.8541E7, rho_inlet_sleeve = 2745.5) (degC), Point: 261Temperature (Cp_Al = 737.85, k_Al = 110.46, sigma_Al = 5.9101E7, rho_Al = 2502.5, Cp_inlet = 710.01, k_inlet = 183.71, sigma_inlet = 2.4422E7, rho_inlet = 2078.6, Cp_outlet = 993.35, k_outlet = 120.26, sigma_outlet = 5.1187E7, rho_outlet = 1969.6, Cp_outlet_sleeve = 529.25, k_outlet_sleeve = 158.47, sigma_outlet_sleeve = 3.2218E7, rho_outlet_sleeve = 2923.7, Cp_inlet_sleeve = 820.35, k_inlet_sleeve = 118.44, sigma_inlet_sleeve = 5.8541E7, rho_inlet_sleeve = 2745.5) (degC), Point: 270Temperature (Cp_Al = 737.85, k_Al = 110.46, sigma_Al = 5.9101E7, rho_Al = 2502.5, Cp_inlet = 710.01, k_inlet = 183.71, sigma_inlet = 2.4422E7, rho_inlet = 2078.6, Cp_outlet = 993.35, k_outlet = 120.26, sigma_outlet = 5.1187E7, rho_outlet = 1969.6, Cp_outlet_sleeve = 529.25, k_outlet_sleeve = 158.47, sigma_outlet_sleeve = 3.2218E7, rho_outlet_sleeve = 2923.7, Cp_inlet_sleeve = 820.35, k_inlet_sleeve = 118.44, sigma_inlet_sleeve = 5.8541E7, rho_inlet_sleeve = 2745.5) (degC), Point: 273Temperature (Cp_Al = 737.85, k_Al = 110.46, sigma_Al = 5.9101E7, rho_Al = 2502.5, Cp_inlet = 710.01, k_inlet = 183.71, sigma_inlet = 2.4422E7, rho_inlet = 2078.6, Cp_outlet = 993.35, k_outlet = 120.26, sigma_outlet = 5.1187E7, rho_outlet = 1969.6, Cp_outlet_sleeve = 529.25, k_outlet_sleeve = 158.47, sigma_outlet_sleeve = 3.2218E7, rho_outlet_sleeve = 2923.7, Cp_inlet_sleeve = 820.35, k_inlet_sleeve = 118.44, sigma_inlet_sleeve = 5.8541E7, rho_inlet_sleeve = 2745.5) (degC), Point: 275
0                        21.820538497273503       21.018228544426506       21.12986369115748        21.008653215614117       21.01412649985673        21.10800219954558        21.01126185941405        21.033857115069736       21.001369139863016       21.024654408185143       21.00152367349915        21.000750640874855       21.00934944840003        21.000107962949926       21.00978617284369        21.027215933433126       21.000061519079225       21.01143235860468        21.00076432570347        21.000326544864663       21.00178440884895        21.000216869138683       21.00034261999741        21.011239775445915       21.118408674748764       21.01332946334213        21.686067605742835       21.008463106059423       21.142438223385682       21.02191937875159        21.912415157557007
3                        351.91226999798243       317.7815309660175        326.08715759448387       321.1549188012118        302.7550870738669        319.12598492404754       318.7011505445106        303.2295735089681        296.1316028594358        311.7911191011257        315.2246982856011        307.6624518051849        303.591576339658         286.19055486415436       292.81106359509363       280.2188825423939        275.56293843321134       283.37549035276606       284.2835674362585        278.17582638903036       277.9397222411134        272.7332278798151        275.5610368303162        320.61082615460566       321.4895115537055        304.4034856978993        350.3706055526776        322.53762531770826       327.64313917372135       316.3393480644959        355.59780198283283
6                        486.128389572585         450.34941933952155       463.19513678479643       459.2037015781366        448.8659827159595        469.43310071917927       469.7135028513327        451.2785757051038        442.0830365779467        462.0005630766947        466.14804721423025       458.5891275159853        453.8088796198251        432.15066239467365       440.8576758494469        412.7243666984705        406.3284795727102        418.9135906165759        420.8080404983641        414.9886001441091        413.8402264272878        404.08779587075867       408.5807606116665        471.4533410934404        471.6023669092026        450.20301589153087       498.28698831696863       457.7091300554803        461.85426094497825       445.72295105868534       486.76768525579655
9                        564.3256955451508        527.6122038748028        543.4153893248373        540.2492472815935        535.484120198224         559.0877484659137        560.0927612646949        539.0641528645701        528.6121477640528        551.6048768172783        556.4818664895042        548.9135191065196        543.4031188663693        518.6599416690048        528.6149889247008        489.8911006181338        482.5067837615543        498.1892453621308        500.9394248195513        495.25160823340525       493.28320074643193       480.53865470954577       485.9851784186777        561.7380929447539        561.1399711418146        536.6219537127338        585.9743984738335        537.0253979449441        540.3187659322783        521.0220409106845        563.0930999346311
12                       618.4507662860416        581.1227918007733        598.9925383161963        596.4622620973945        595.4583926025985        621.3792009462898        623.0141828857088        599.8452472923854        588.5287425176522        613.8648102785373        619.3750828936887        611.8040993489652        605.6593286941669        578.5643436604252        589.3771971742758        543.410822562762         535.3772846847639        553.2192355663631        556.6270106065284        550.9996227892987        548.3889115577964        533.5332148275722        539.6113613885483        624.6057569054478        623.359389572542         596.4675840221838        646.6917692186026        592.2271422789026        594.8554370308277        573.3320537608141        616.0819749687514
15                       658.3323966512102        620.5825351401809        639.9496848576233        637.9158689982247        639.677731142714         667.4247226682871        669.6012208863078        644.6528796183229        632.7105996470088        659.8907462003234        665.9447741262346        658.3745334919028        651.6848046410598        622.7386232964872        634.1717241288917        582.9259414895256        574.447612740556         593.8504314117482        597.7707087958158        592.1948177701273        589.075699452296         572.676236733629         579.1910521675512        671.1635180274131        669.3608568957401        640.6034811110139        691.4576106991855        633.0997017099062        635.2026642872245        612.0561463688023        655.2742465663093
18                       690.5365740311845        652.4710690735287        673.0004024352488        671.3697569119443        675.3749156581622        704.6184200654976        707.2588855368073        680.8116414342156        668.3819758405907        697.071528960251         703.5911055947681        696.0228643360166        688.8664613039219        658.4049422736246        670.3207420430695        614.8878399912072        606.0776315969435        626.6891681526295        631.0251912777283        625.5033604445136        621.9676974594619        604.3629762455352        611.2057737091869        708.8045728044033        706.5258598527697        676.2432513104925        727.5872024174129        666.2005454472065        667.8736277399985        643.463347428153         687.0320288866903
21                       718.2541589542831        679.9368129298164        701.4166860397072        700.1251721635398        705.97269733315          736.4644337547859        739.5006056569442        711.785913816842         698.9611306933372        728.9085756286926        735.8250173076932        728.2590787171631        720.7048188790964        688.9804525596696        701.2873797815311        642.4350846930694        633.3609335720803        654.9587505594855        659.6440928898348        654.1755276842083        650.287734421344         631.694402448947         638.7991744917434        741.0364598661888        738.3520856061982        706.7995258065995        758.5400401050139        694.730476022815         696.0405932013949        670.5965138559501        714.444235462709
24                       742.9573867838644        704.432668641971         726.7102451036304        725.7090602468824        733.0006337206261        764.5340943332361        767.9049412154646        739.1237839336997        725.9754014029558        756.9719067306327        764.2238827278787        756.6602127582856        748.7695678328984        715.992025221993         728.6191686601012        667.0157939811224        657.725087975708         680.1485111638361        685.1325135634808        679.7143306386149        675.5242416359569        656.1003459590354        663.4207169240224        769.4350770775328        766.407842056505         733.7969334171904        785.861868123002         720.1697828519085        721.1687297074285        694.8585671692229        738.9350409376973
27                       765.6052595292007        726.9053919617656        749.8657744089743        749.1162834276518        757.4545236121859        789.8559341119177        793.507672525075         763.8338488189007        750.4190320854896        782.2891572624318        789.8226749781553        782.2611016267639        774.0882014359264        740.4336575578068        753.3243728059336        689.5727725920754        680.0997961522587        703.2282105154676        708.4707860818361        703.099150047472         698.6467167520773        678.512090256172         686.0142441827488        795.0345080230683        791.719658542307         758.227897036966         810.5597053426173        743.4827361276444        744.212007532819         717.1626709866215        761.4312973973905
