% Model:              brazing.mph
% Version:            COMSOL 5.3.0.223
% Date:               Oct 24 2018, 06:39
% Table:              Table 3 - 
% Time (s)               Temperature (Cp_Al = 880.28, k_Al = 146.1, sigma_Al = 4.0246E7, rho_Al = 2590.8, Cp_inlet = 887.67, k_inlet = 155.28, sigma_inlet = 3.4242E7, rho_inlet = 2512.7, Cp_outlet = 850.08, k_outlet = 155.81, sigma_outlet = 3.7952E7, rho_outlet = 2560.7, Cp_outlet_sleeve = 813.63, k_outlet_sleeve = 159.84, sigma_outlet_sleeve = 3.5281E7, rho_outlet_sleeve = 2525.3, Cp_inlet_sleeve = 919.91, k_inlet_sleeve = 155.17, sigma_inlet_sleeve = 4.1794E7, rho_inlet_sleeve = 2619.7) (degC), Point: 55Temperature (Cp_Al = 880.28, k_Al = 146.1, sigma_Al = 4.0246E7, rho_Al = 2590.8, Cp_inlet = 887.67, k_inlet = 155.28, sigma_inlet = 3.4242E7, rho_inlet = 2512.7, Cp_outlet = 850.08, k_outlet = 155.81, sigma_outlet = 3.7952E7, rho_outlet = 2560.7, Cp_outlet_sleeve = 813.63, k_outlet_sleeve = 159.84, sigma_outlet_sleeve = 3.5281E7, rho_outlet_sleeve = 2525.3, Cp_inlet_sleeve = 919.91, k_inlet_sleeve = 155.17, sigma_inlet_sleeve = 4.1794E7, rho_inlet_sleeve = 2619.7) (degC), Point: 56Temperature (Cp_Al = 880.28, k_Al = 146.1, sigma_Al = 4.0246E7, rho_Al = 2590.8, Cp_inlet = 887.67, k_inlet = 155.28, sigma_inlet = 3.4242E7, rho_inlet = 2512.7, Cp_outlet = 850.08, k_outlet = 155.81, sigma_outlet = 3.7952E7, rho_outlet = 2560.7, Cp_outlet_sleeve = 813.63, k_outlet_sleeve = 159.84, sigma_outlet_sleeve = 3.5281E7, rho_outlet_sleeve = 2525.3, Cp_inlet_sleeve = 919.91, k_inlet_sleeve = 155.17, sigma_inlet_sleeve = 4.1794E7, rho_inlet_sleeve = 2619.7) (degC), Point: 60Temperature (Cp_Al = 880.28, k_Al = 146.1, sigma_Al = 4.0246E7, rho_Al = 2590.8, Cp_inlet = 887.67, k_inlet = 155.28, sigma_inlet = 3.4242E7, rho_inlet = 2512.7, Cp_outlet = 850.08, k_outlet = 155.81, sigma_outlet = 3.7952E7, rho_outlet = 2560.7, Cp_outlet_sleeve = 813.63, k_outlet_sleeve = 159.84, sigma_outlet_sleeve = 3.5281E7, rho_outlet_sleeve = 2525.3, Cp_inlet_sleeve = 919.91, k_inlet_sleeve = 155.17, sigma_inlet_sleeve = 4.1794E7, rho_inlet_sleeve = 2619.7) (degC), Point: 69Temperature (Cp_Al = 880.28, k_Al = 146.1, sigma_Al = 4.0246E7, rho_Al = 2590.8, Cp_inlet = 887.67, k_inlet = 155.28, sigma_inlet = 3.4242E7, rho_inlet = 2512.7, Cp_outlet = 850.08, k_outlet = 155.81, sigma_outlet = 3.7952E7, rho_outlet = 2560.7, Cp_outlet_sleeve = 813.63, k_outlet_sleeve = 159.84, sigma_outlet_sleeve = 3.5281E7, rho_outlet_sleeve = 2525.3, Cp_inlet_sleeve = 919.91, k_inlet_sleeve = 155.17, sigma_inlet_sleeve = 4.1794E7, rho_inlet_sleeve = 2619.7) (degC), Point: 90Temperature (Cp_Al = 880.28, k_Al = 146.1, sigma_Al = 4.0246E7, rho_Al = 2590.8, Cp_inlet = 887.67, k_inlet = 155.28, sigma_inlet = 3.4242E7, rho_inlet = 2512.7, Cp_outlet = 850.08, k_outlet = 155.81, sigma_outlet = 3.7952E7, rho_outlet = 2560.7, Cp_outlet_sleeve = 813.63, k_outlet_sleeve = 159.84, sigma_outlet_sleeve = 3.5281E7, rho_outlet_sleeve = 2525.3, Cp_inlet_sleeve = 919.91, k_inlet_sleeve = 155.17, sigma_inlet_sleeve = 4.1794E7, rho_inlet_sleeve = 2619.7) (degC), Point: 98Temperature (Cp_Al = 880.28, k_Al = 146.1, sigma_Al = 4.0246E7, rho_Al = 2590.8, Cp_inlet = 887.67, k_inlet = 155.28, sigma_inlet = 3.4242E7, rho_inlet = 2512.7, Cp_outlet = 850.08, k_outlet = 155.81, sigma_outlet = 3.7952E7, rho_outlet = 2560.7, Cp_outlet_sleeve = 813.63, k_outlet_sleeve = 159.84, sigma_outlet_sleeve = 3.5281E7, rho_outlet_sleeve = 2525.3, Cp_inlet_sleeve = 919.91, k_inlet_sleeve = 155.17, sigma_inlet_sleeve = 4.1794E7, rho_inlet_sleeve = 2619.7) (degC), Point: 102Temperature (Cp_Al = 880.28, k_Al = 146.1, sigma_Al = 4.0246E7, rho_Al = 2590.8, Cp_inlet = 887.67, k_inlet = 155.28, sigma_inlet = 3.4242E7, rho_inlet = 2512.7, Cp_outlet = 850.08, k_outlet = 155.81, sigma_outlet = 3.7952E7, rho_outlet = 2560.7, Cp_outlet_sleeve = 813.63, k_outlet_sleeve = 159.84, sigma_outlet_sleeve = 3.5281E7, rho_outlet_sleeve = 2525.3, Cp_inlet_sleeve = 919.91, k_inlet_sleeve = 155.17, sigma_inlet_sleeve = 4.1794E7, rho_inlet_sleeve = 2619.7) (degC), Point: 127Temperature (Cp_Al = 880.28, k_Al = 146.1, sigma_Al = 4.0246E7, rho_Al = 2590.8, Cp_inlet = 887.67, k_inlet = 155.28, sigma_inlet = 3.4242E7, rho_inlet = 2512.7, Cp_outlet = 850.08, k_outlet = 155.81, sigma_outlet = 3.7952E7, rho_outlet = 2560.7, Cp_outlet_sleeve = 813.63, k_outlet_sleeve = 159.84, sigma_outlet_sleeve = 3.5281E7, rho_outlet_sleeve = 2525.3, Cp_inlet_sleeve = 919.91, k_inlet_sleeve = 155.17, sigma_inlet_sleeve = 4.1794E7, rho_inlet_sleeve = 2619.7) (degC), Point: 128Temperature (Cp_Al = 880.28, k_Al = 146.1, sigma_Al = 4.0246E7, rho_Al = 2590.8, Cp_inlet = 887.67, k_inlet = 155.28, sigma_inlet = 3.4242E7, rho_inlet = 2512.7, Cp_outlet = 850.08, k_outlet = 155.81, sigma_outlet = 3.7952E7, rho_outlet = 2560.7, Cp_outlet_sleeve = 813.63, k_outlet_sleeve = 159.84, sigma_outlet_sleeve = 3.5281E7, rho_outlet_sleeve = 2525.3, Cp_inlet_sleeve = 919.91, k_inlet_sleeve = 155.17, sigma_inlet_sleeve = 4.1794E7, rho_inlet_sleeve = 2619.7) (degC), Point: 134Temperature (Cp_Al = 880.28, k_Al = 146.1, sigma_Al = 4.0246E7, rho_Al = 2590.8, Cp_inlet = 887.67, k_inlet = 155.28, sigma_inlet = 3.4242E7, rho_inlet = 2512.7, Cp_outlet = 850.08, k_outlet = 155.81, sigma_outlet = 3.7952E7, rho_outlet = 2560.7, Cp_outlet_sleeve = 813.63, k_outlet_sleeve = 159.84, sigma_outlet_sleeve = 3.5281E7, rho_outlet_sleeve = 2525.3, Cp_inlet_sleeve = 919.91, k_inlet_sleeve = 155.17, sigma_inlet_sleeve = 4.1794E7, rho_inlet_sleeve = 2619.7) (degC), Point: 138Temperature (Cp_Al = 880.28, k_Al = 146.1, sigma_Al = 4.0246E7, rho_Al = 2590.8, Cp_inlet = 887.67, k_inlet = 155.28, sigma_inlet = 3.4242E7, rho_inlet = 2512.7, Cp_outlet = 850.08, k_outlet = 155.81, sigma_outlet = 3.7952E7, rho_outlet = 2560.7, Cp_outlet_sleeve = 813.63, k_outlet_sleeve = 159.84, sigma_outlet_sleeve = 3.5281E7, rho_outlet_sleeve = 2525.3, Cp_inlet_sleeve = 919.91, k_inlet_sleeve = 155.17, sigma_inlet_sleeve = 4.1794E7, rho_inlet_sleeve = 2619.7) (degC), Point: 151Temperature (Cp_Al = 880.28, k_Al = 146.1, sigma_Al = 4.0246E7, rho_Al = 2590.8, Cp_inlet = 887.67, k_inlet = 155.28, sigma_inlet = 3.4242E7, rho_inlet = 2512.7, Cp_outlet = 850.08, k_outlet = 155.81, sigma_outlet = 3.7952E7, rho_outlet = 2560.7, Cp_outlet_sleeve = 813.63, k_outlet_sleeve = 159.84, sigma_outlet_sleeve = 3.5281E7, rho_outlet_sleeve = 2525.3, Cp_inlet_sleeve = 919.91, k_inlet_sleeve = 155.17, sigma_inlet_sleeve = 4.1794E7, rho_inlet_sleeve = 2619.7) (degC), Point: 154Temperature (Cp_Al = 880.28, k_Al = 146.1, sigma_Al = 4.0246E7, rho_Al = 2590.8, Cp_inlet = 887.67, k_inlet = 155.28, sigma_inlet = 3.4242E7, rho_inlet = 2512.7, Cp_outlet = 850.08, k_outlet = 155.81, sigma_outlet = 3.7952E7, rho_outlet = 2560.7, Cp_outlet_sleeve = 813.63, k_outlet_sleeve = 159.84, sigma_outlet_sleeve = 3.5281E7, rho_outlet_sleeve = 2525.3, Cp_inlet_sleeve = 919.91, k_inlet_sleeve = 155.17, sigma_inlet_sleeve = 4.1794E7, rho_inlet_sleeve = 2619.7) (degC), Point: 159Temperature (Cp_Al = 880.28, k_Al = 146.1, sigma_Al = 4.0246E7, rho_Al = 2590.8, Cp_inlet = 887.67, k_inlet = 155.28, sigma_inlet = 3.4242E7, rho_inlet = 2512.7, Cp_outlet = 850.08, k_outlet = 155.81, sigma_outlet = 3.7952E7, rho_outlet = 2560.7, Cp_outlet_sleeve = 813.63, k_outlet_sleeve = 159.84, sigma_outlet_sleeve = 3.5281E7, rho_outlet_sleeve = 2525.3, Cp_inlet_sleeve = 919.91, k_inlet_sleeve = 155.17, sigma_inlet_sleeve = 4.1794E7, rho_inlet_sleeve = 2619.7) (degC), Point: 163Temperature (Cp_Al = 880.28, k_Al = 146.1, sigma_Al = 4.0246E7, rho_Al = 2590.8, Cp_inlet = 887.67, k_inlet = 155.28, sigma_inlet = 3.4242E7, rho_inlet = 2512.7, Cp_outlet = 850.08, k_outlet = 155.81, sigma_outlet = 3.7952E7, rho_outlet = 2560.7, Cp_outlet_sleeve = 813.63, k_outlet_sleeve = 159.84, sigma_outlet_sleeve = 3.5281E7, rho_outlet_sleeve = 2525.3, Cp_inlet_sleeve = 919.91, k_inlet_sleeve = 155.17, sigma_inlet_sleeve = 4.1794E7, rho_inlet_sleeve = 2619.7) (degC), Point: 167Temperature (Cp_Al = 880.28, k_Al = 146.1, sigma_Al = 4.0246E7, rho_Al = 2590.8, Cp_inlet = 887.67, k_inlet = 155.28, sigma_inlet = 3.4242E7, rho_inlet = 2512.7, Cp_outlet = 850.08, k_outlet = 155.81, sigma_outlet = 3.7952E7, rho_outlet = 2560.7, Cp_outlet_sleeve = 813.63, k_outlet_sleeve = 159.84, sigma_outlet_sleeve = 3.5281E7, rho_outlet_sleeve = 2525.3, Cp_inlet_sleeve = 919.91, k_inlet_sleeve = 155.17, sigma_inlet_sleeve = 4.1794E7, rho_inlet_sleeve = 2619.7) (degC), Point: 168Temperature (Cp_Al = 880.28, k_Al = 146.1, sigma_Al = 4.0246E7, rho_Al = 2590.8, Cp_inlet = 887.67, k_inlet = 155.28, sigma_inlet = 3.4242E7, rho_inlet = 2512.7, Cp_outlet = 850.08, k_outlet = 155.81, sigma_outlet = 3.7952E7, rho_outlet = 2560.7, Cp_outlet_sleeve = 813.63, k_outlet_sleeve = 159.84, sigma_outlet_sleeve = 3.5281E7, rho_outlet_sleeve = 2525.3, Cp_inlet_sleeve = 919.91, k_inlet_sleeve = 155.17, sigma_inlet_sleeve = 4.1794E7, rho_inlet_sleeve = 2619.7) (degC), Point: 172Temperature (Cp_Al = 880.28, k_Al = 146.1, sigma_Al = 4.0246E7, rho_Al = 2590.8, Cp_inlet = 887.67, k_inlet = 155.28, sigma_inlet = 3.4242E7, rho_inlet = 2512.7, Cp_outlet = 850.08, k_outlet = 155.81, sigma_outlet = 3.7952E7, rho_outlet = 2560.7, Cp_outlet_sleeve = 813.63, k_outlet_sleeve = 159.84, sigma_outlet_sleeve = 3.5281E7, rho_outlet_sleeve = 2525.3, Cp_inlet_sleeve = 919.91, k_inlet_sleeve = 155.17, sigma_inlet_sleeve = 4.1794E7, rho_inlet_sleeve = 2619.7) (degC), Point: 181Temperature (Cp_Al = 880.28, k_Al = 146.1, sigma_Al = 4.0246E7, rho_Al = 2590.8, Cp_inlet = 887.67, k_inlet = 155.28, sigma_inlet = 3.4242E7, rho_inlet = 2512.7, Cp_outlet = 850.08, k_outlet = 155.81, sigma_outlet = 3.7952E7, rho_outlet = 2560.7, Cp_outlet_sleeve = 813.63, k_outlet_sleeve = 159.84, sigma_outlet_sleeve = 3.5281E7, rho_outlet_sleeve = 2525.3, Cp_inlet_sleeve = 919.91, k_inlet_sleeve = 155.17, sigma_inlet_sleeve = 4.1794E7, rho_inlet_sleeve = 2619.7) (degC), Point: 201Temperature (Cp_Al = 880.28, k_Al = 146.1, sigma_Al = 4.0246E7, rho_Al = 2590.8, Cp_inlet = 887.67, k_inlet = 155.28, sigma_inlet = 3.4242E7, rho_inlet = 2512.7, Cp_outlet = 850.08, k_outlet = 155.81, sigma_outlet = 3.7952E7, rho_outlet = 2560.7, Cp_outlet_sleeve = 813.63, k_outlet_sleeve = 159.84, sigma_outlet_sleeve = 3.5281E7, rho_outlet_sleeve = 2525.3, Cp_inlet_sleeve = 919.91, k_inlet_sleeve = 155.17, sigma_inlet_sleeve = 4.1794E7, rho_inlet_sleeve = 2619.7) (degC), Point: 210Temperature (Cp_Al = 880.28, k_Al = 146.1, sigma_Al = 4.0246E7, rho_Al = 2590.8, Cp_inlet = 887.67, k_inlet = 155.28, sigma_inlet = 3.4242E7, rho_inlet = 2512.7, Cp_outlet = 850.08, k_outlet = 155.81, sigma_outlet = 3.7952E7, rho_outlet = 2560.7, Cp_outlet_sleeve = 813.63, k_outlet_sleeve = 159.84, sigma_outlet_sleeve = 3.5281E7, rho_outlet_sleeve = 2525.3, Cp_inlet_sleeve = 919.91, k_inlet_sleeve = 155.17, sigma_inlet_sleeve = 4.1794E7, rho_inlet_sleeve = 2619.7) (degC), Point: 213Temperature (Cp_Al = 880.28, k_Al = 146.1, sigma_Al = 4.0246E7, rho_Al = 2590.8, Cp_inlet = 887.67, k_inlet = 155.28, sigma_inlet = 3.4242E7, rho_inlet = 2512.7, Cp_outlet = 850.08, k_outlet = 155.81, sigma_outlet = 3.7952E7, rho_outlet = 2560.7, Cp_outlet_sleeve = 813.63, k_outlet_sleeve = 159.84, sigma_outlet_sleeve = 3.5281E7, rho_outlet_sleeve = 2525.3, Cp_inlet_sleeve = 919.91, k_inlet_sleeve = 155.17, sigma_inlet_sleeve = 4.1794E7, rho_inlet_sleeve = 2619.7) (degC), Point: 215Temperature (Cp_Al = 880.28, k_Al = 146.1, sigma_Al = 4.0246E7, rho_Al = 2590.8, Cp_inlet = 887.67, k_inlet = 155.28, sigma_inlet = 3.4242E7, rho_inlet = 2512.7, Cp_outlet = 850.08, k_outlet = 155.81, sigma_outlet = 3.7952E7, rho_outlet = 2560.7, Cp_outlet_sleeve = 813.63, k_outlet_sleeve = 159.84, sigma_outlet_sleeve = 3.5281E7, rho_outlet_sleeve = 2525.3, Cp_inlet_sleeve = 919.91, k_inlet_sleeve = 155.17, sigma_inlet_sleeve = 4.1794E7, rho_inlet_sleeve = 2619.7) (degC), Point: 229Temperature (Cp_Al = 880.28, k_Al = 146.1, sigma_Al = 4.0246E7, rho_Al = 2590.8, Cp_inlet = 887.67, k_inlet = 155.28, sigma_inlet = 3.4242E7, rho_inlet = 2512.7, Cp_outlet = 850.08, k_outlet = 155.81, sigma_outlet = 3.7952E7, rho_outlet = 2560.7, Cp_outlet_sleeve = 813.63, k_outlet_sleeve = 159.84, sigma_outlet_sleeve = 3.5281E7, rho_outlet_sleeve = 2525.3, Cp_inlet_sleeve = 919.91, k_inlet_sleeve = 155.17, sigma_inlet_sleeve = 4.1794E7, rho_inlet_sleeve = 2619.7) (degC), Point: 232Temperature (Cp_Al = 880.28, k_Al = 146.1, sigma_Al = 4.0246E7, rho_Al = 2590.8, Cp_inlet = 887.67, k_inlet = 155.28, sigma_inlet = 3.4242E7, rho_inlet = 2512.7, Cp_outlet = 850.08, k_outlet = 155.81, sigma_outlet = 3.7952E7, rho_outlet = 2560.7, Cp_outlet_sleeve = 813.63, k_outlet_sleeve = 159.84, sigma_outlet_sleeve = 3.5281E7, rho_outlet_sleeve = 2525.3, Cp_inlet_sleeve = 919.91, k_inlet_sleeve = 155.17, sigma_inlet_sleeve = 4.1794E7, rho_inlet_sleeve = 2619.7) (degC), Point: 239Temperature (Cp_Al = 880.28, k_Al = 146.1, sigma_Al = 4.0246E7, rho_Al = 2590.8, Cp_inlet = 887.67, k_inlet = 155.28, sigma_inlet = 3.4242E7, rho_inlet = 2512.7, Cp_outlet = 850.08, k_outlet = 155.81, sigma_outlet = 3.7952E7, rho_outlet = 2560.7, Cp_outlet_sleeve = 813.63, k_outlet_sleeve = 159.84, sigma_outlet_sleeve = 3.5281E7, rho_outlet_sleeve = 2525.3, Cp_inlet_sleeve = 919.91, k_inlet_sleeve = 155.17, sigma_inlet_sleeve = 4.1794E7, rho_inlet_sleeve = 2619.7) (degC), Point: 252Temperature (Cp_Al = 880.28, k_Al = 146.1, sigma_Al = 4.0246E7, rho_Al = 2590.8, Cp_inlet = 887.67, k_inlet = 155.28, sigma_inlet = 3.4242E7, rho_inlet = 2512.7, Cp_outlet = 850.08, k_outlet = 155.81, sigma_outlet = 3.7952E7, rho_outlet = 2560.7, Cp_outlet_sleeve = 813.63, k_outlet_sleeve = 159.84, sigma_outlet_sleeve = 3.5281E7, rho_outlet_sleeve = 2525.3, Cp_inlet_sleeve = 919.91, k_inlet_sleeve = 155.17, sigma_inlet_sleeve = 4.1794E7, rho_inlet_sleeve = 2619.7) (degC), Point: 261Temperature (Cp_Al = 880.28, k_Al = 146.1, sigma_Al = 4.0246E7, rho_Al = 2590.8, Cp_inlet = 887.67, k_inlet = 155.28, sigma_inlet = 3.4242E7, rho_inlet = 2512.7, Cp_outlet = 850.08, k_outlet = 155.81, sigma_outlet = 3.7952E7, rho_outlet = 2560.7, Cp_outlet_sleeve = 813.63, k_outlet_sleeve = 159.84, sigma_outlet_sleeve = 3.5281E7, rho_outlet_sleeve = 2525.3, Cp_inlet_sleeve = 919.91, k_inlet_sleeve = 155.17, sigma_inlet_sleeve = 4.1794E7, rho_inlet_sleeve = 2619.7) (degC), Point: 270Temperature (Cp_Al = 880.28, k_Al = 146.1, sigma_Al = 4.0246E7, rho_Al = 2590.8, Cp_inlet = 887.67, k_inlet = 155.28, sigma_inlet = 3.4242E7, rho_inlet = 2512.7, Cp_outlet = 850.08, k_outlet = 155.81, sigma_outlet = 3.7952E7, rho_outlet = 2560.7, Cp_outlet_sleeve = 813.63, k_outlet_sleeve = 159.84, sigma_outlet_sleeve = 3.5281E7, rho_outlet_sleeve = 2525.3, Cp_inlet_sleeve = 919.91, k_inlet_sleeve = 155.17, sigma_inlet_sleeve = 4.1794E7, rho_inlet_sleeve = 2619.7) (degC), Point: 273Temperature (Cp_Al = 880.28, k_Al = 146.1, sigma_Al = 4.0246E7, rho_Al = 2590.8, Cp_inlet = 887.67, k_inlet = 155.28, sigma_inlet = 3.4242E7, rho_inlet = 2512.7, Cp_outlet = 850.08, k_outlet = 155.81, sigma_outlet = 3.7952E7, rho_outlet = 2560.7, Cp_outlet_sleeve = 813.63, k_outlet_sleeve = 159.84, sigma_outlet_sleeve = 3.5281E7, rho_outlet_sleeve = 2525.3, Cp_inlet_sleeve = 919.91, k_inlet_sleeve = 155.17, sigma_inlet_sleeve = 4.1794E7, rho_inlet_sleeve = 2619.7) (degC), Point: 275
0                        21.66101158483832        21.013299789263215       21.131810884680874       21.00866626005552        21.013533384516165       21.108164797159134       21.008765368896775       21.026139088992295       21.001407107652994       21.024588282737454       21.001231993552267       21.0006425814276         21.009500259783806       21.000108473218404       21.00775066653216        21.0217258127567         21.000055580165395       21.011554259167667       21.0007342775271         21.000298142648603       21.001774212525277       21.000177119478565       21.00027187527985        21.008754241617908       21.118652584634617       21.012987603397107       21.550952416454663       21.008553023016873       21.14467627426035        21.01659022143923        21.735307939482027
3                        313.8049319185426        279.181074054609         288.33944787447206       283.57311317196206       262.9553909275911        275.7494621831163        274.1015424678267        262.2185662725957        257.32486384361766       268.36324738419216       270.4379853038097        262.1405630641011        259.4456910524774        246.68409200056465       251.60890860304448       246.23121124310876       241.66527057100882       250.50914573579007       251.91301740853498       245.6645957418791        244.81470025946714       238.37626963139826       241.14862869354795       276.14122765415937       278.225417342711         264.5489408302316        298.5714280403814        285.1218275904347        290.14710285417345       278.38275593044443       318.0044063686413
6                        438.92597376672063       402.77690698744857       415.7308348443122        411.6877785326551        387.48825071150907       405.17998010350277       404.5677230611328        388.5941250500359        381.7028922716513        397.6918397281612        400.8074842293365        392.49081393229244       388.75871566956334       371.0380922802859        377.9513678623025        370.07766327331876       363.9132283673375        376.74384174568524       378.9089048612527        372.6253940473998        371.07636433227583       360.83621559193125       365.1483609714817        406.40478490571525       407.4267908487151        388.7462711145139        424.7842271459955        410.8657964068607        415.14935117855396       399.3421557860097        440.6036151048785
9                        512.2499764771969        475.19020806663          490.86417085481867       487.56110422482425       458.5522455230491        479.5238029075829        479.8132086524979        460.7039160854248        452.67343696635237       471.9787882202444        475.9996707337817        467.6735971077454        463.03707462371494       441.99510294952563       450.03864982242897       442.5466053403079        435.4247243253243        451.10436418336076       454.03893342273807       447.86650020326977       445.57920254159956       432.5847565625918        437.82324063430144       481.5433503065293        481.64025007377427       459.60834750568176       496.79522051036747       485.3372654565004        488.8517443604086        470.1317685727753        512.3832506530224
12                       562.636816576291         524.9611862918028        542.6349030353468        539.9413335066662        506.32164341781936       529.5743682504605        530.5552890049435        509.14363563900406       500.38268388642496       521.993906538035         526.708766247348         518.3798475857808        513.0492774360076        489.6973315113579        498.46476276470503       492.4279497515744        484.65915367510615       502.42677366069586       505.9926380900671        499.8981948451152        496.9925949062722        481.95532648476524       487.8235642936153        532.2236868609857        531.6109576896108        507.24933794133676       545.1725820444274        536.9269518871313        539.8002952885574        518.9290784686261        561.8526960699863
15                       600.7650621981986        562.6389065390807        581.8580701800499        579.6665235522582        541.8644300820192        566.7794015530611        568.2929705794544        545.1502342690607        535.8847883529924        559.175578720836         564.4248474783224        556.0968599305276        550.2315434609978        525.1968723850013        534.463814368989         530.2357655709224        521.9949649289135        541.370935519129         545.4554333228156        539.4414335215496        536.0210797688924        519.3951384222194        525.7257425118291        569.9245937112336        568.7652470555095        542.7073876371297        581.1388372444387        576.198417693298         578.539518540376         556.001919958987         599.4175266916606
18                       631.2619938200787        592.7914577787869        613.2484857138976        611.4790316060939        569.877733828496         596.0471935197932        597.9816574004772        573.4979177310778        563.8701809765527        588.4278494462687        594.0992830873025        585.7739803872228        579.4860406372834        553.1820198142086        562.8073413899824        560.5238468929721        551.9233986117648        572.5834875892361        577.1031060779657        571.1700511915922        567.3137785592428        549.40995147697          556.0947269360265        599.5918363076815        598.0006049518912        570.6640096303522        609.4600352292751        607.7565562290067        609.6479741818107        585.7750414785656        629.5661436010886
21                       657.3331449607589        618.5834203196014        640.0744478936992        638.6677139459865        593.6103138335483        620.780738347542         623.061226173225         597.4894025590235        587.5827533898715        613.1506234646114        619.1690204157902        610.8470721319782        604.2116923537722        576.8954891949999        586.7965008497503        586.4496503212711        577.5586372952918        599.2882478862034        604.1811090433891        598.3255943679316        594.0934318610612        575.1205616547545        582.0924129304306        624.6587090509455        622.7125293137186        594.3569878773872        633.433325374171         634.7978477936479        636.3022417816034        611.3158839789759        655.4101867442868
24                       680.6226452598648        641.6381137240065        664.0148065836066        662.9237859457438        614.737174965648         642.7409436546915        645.3151976115835        618.8277737745348        608.69478967945          635.1031131589458        641.4159816400428        633.0975559481476        626.167249661089         598.0089668801301        608.1335623278558        609.6328868639459        600.4983040072265        623.1416474871563        628.3588614005255        622.574896313004         618.015171652785         598.1267840538651        605.3397052351163        646.9052586731069        644.6578731053229        615.4552484523219        654.7587427636372        658.9664645693729        660.1341519864548        634.1969770481998        678.5449735166991
27                       701.9580483155986        662.7728505975913        685.9156010194089        685.1003269511233        634.1127695159465        662.8269770872206        665.6551096896158        638.3814334594583        628.0592041065371        655.1835400888933        661.750819451768         653.4358476963738        646.2507108075265        617.3750567973034        627.686505370657         630.8883882280559        621.5462680278773        644.9781767946569        650.4782850034545        644.7589994752949        639.913136918148         619.233574661122         626.6521019847337        667.2411394308708        664.7335778445204        634.809834243137         674.3030034022523        681.0918458543995        681.9658318183754        655.2089764908698        699.7726487935203
