% Model:              brazing.mph
% Version:            COMSOL 5.3.0.223
% Date:               Oct 24 2018, 04:27
% Table:              Table 3 - 
% Time (s)               Temperature (Cp_Al = 839.67, k_Al = 141.71, sigma_Al = 4.5227E7, rho_Al = 2690.2, Cp_inlet = 883.74, k_inlet = 165.64, sigma_inlet = 3.1687E7, rho_inlet = 2346.7, Cp_outlet = 889.66, k_outlet = 143.57, sigma_outlet = 4.1237E7, rho_outlet = 2438.6, Cp_outlet_sleeve = 743.24, k_outlet_sleeve = 163.21, sigma_outlet_sleeve = 3.3883E7, rho_outlet_sleeve = 2703.5, Cp_inlet_sleeve = 897.4, k_inlet_sleeve = 147.53, sigma_inlet_sleeve = 4.4566E7, rho_inlet_sleeve = 2616.3) (degC), Point: 55Temperature (Cp_Al = 839.67, k_Al = 141.71, sigma_Al = 4.5227E7, rho_Al = 2690.2, Cp_inlet = 883.74, k_inlet = 165.64, sigma_inlet = 3.1687E7, rho_inlet = 2346.7, Cp_outlet = 889.66, k_outlet = 143.57, sigma_outlet = 4.1237E7, rho_outlet = 2438.6, Cp_outlet_sleeve = 743.24, k_outlet_sleeve = 163.21, sigma_outlet_sleeve = 3.3883E7, rho_outlet_sleeve = 2703.5, Cp_inlet_sleeve = 897.4, k_inlet_sleeve = 147.53, sigma_inlet_sleeve = 4.4566E7, rho_inlet_sleeve = 2616.3) (degC), Point: 56Temperature (Cp_Al = 839.67, k_Al = 141.71, sigma_Al = 4.5227E7, rho_Al = 2690.2, Cp_inlet = 883.74, k_inlet = 165.64, sigma_inlet = 3.1687E7, rho_inlet = 2346.7, Cp_outlet = 889.66, k_outlet = 143.57, sigma_outlet = 4.1237E7, rho_outlet = 2438.6, Cp_outlet_sleeve = 743.24, k_outlet_sleeve = 163.21, sigma_outlet_sleeve = 3.3883E7, rho_outlet_sleeve = 2703.5, Cp_inlet_sleeve = 897.4, k_inlet_sleeve = 147.53, sigma_inlet_sleeve = 4.4566E7, rho_inlet_sleeve = 2616.3) (degC), Point: 60Temperature (Cp_Al = 839.67, k_Al = 141.71, sigma_Al = 4.5227E7, rho_Al = 2690.2, Cp_inlet = 883.74, k_inlet = 165.64, sigma_inlet = 3.1687E7, rho_inlet = 2346.7, Cp_outlet = 889.66, k_outlet = 143.57, sigma_outlet = 4.1237E7, rho_outlet = 2438.6, Cp_outlet_sleeve = 743.24, k_outlet_sleeve = 163.21, sigma_outlet_sleeve = 3.3883E7, rho_outlet_sleeve = 2703.5, Cp_inlet_sleeve = 897.4, k_inlet_sleeve = 147.53, sigma_inlet_sleeve = 4.4566E7, rho_inlet_sleeve = 2616.3) (degC), Point: 69Temperature (Cp_Al = 839.67, k_Al = 141.71, sigma_Al = 4.5227E7, rho_Al = 2690.2, Cp_inlet = 883.74, k_inlet = 165.64, sigma_inlet = 3.1687E7, rho_inlet = 2346.7, Cp_outlet = 889.66, k_outlet = 143.57, sigma_outlet = 4.1237E7, rho_outlet = 2438.6, Cp_outlet_sleeve = 743.24, k_outlet_sleeve = 163.21, sigma_outlet_sleeve = 3.3883E7, rho_outlet_sleeve = 2703.5, Cp_inlet_sleeve = 897.4, k_inlet_sleeve = 147.53, sigma_inlet_sleeve = 4.4566E7, rho_inlet_sleeve = 2616.3) (degC), Point: 90Temperature (Cp_Al = 839.67, k_Al = 141.71, sigma_Al = 4.5227E7, rho_Al = 2690.2, Cp_inlet = 883.74, k_inlet = 165.64, sigma_inlet = 3.1687E7, rho_inlet = 2346.7, Cp_outlet = 889.66, k_outlet = 143.57, sigma_outlet = 4.1237E7, rho_outlet = 2438.6, Cp_outlet_sleeve = 743.24, k_outlet_sleeve = 163.21, sigma_outlet_sleeve = 3.3883E7, rho_outlet_sleeve = 2703.5, Cp_inlet_sleeve = 897.4, k_inlet_sleeve = 147.53, sigma_inlet_sleeve = 4.4566E7, rho_inlet_sleeve = 2616.3) (degC), Point: 98Temperature (Cp_Al = 839.67, k_Al = 141.71, sigma_Al = 4.5227E7, rho_Al = 2690.2, Cp_inlet = 883.74, k_inlet = 165.64, sigma_inlet = 3.1687E7, rho_inlet = 2346.7, Cp_outlet = 889.66, k_outlet = 143.57, sigma_outlet = 4.1237E7, rho_outlet = 2438.6, Cp_outlet_sleeve = 743.24, k_outlet_sleeve = 163.21, sigma_outlet_sleeve = 3.3883E7, rho_outlet_sleeve = 2703.5, Cp_inlet_sleeve = 897.4, k_inlet_sleeve = 147.53, sigma_inlet_sleeve = 4.4566E7, rho_inlet_sleeve = 2616.3) (degC), Point: 102Temperature (Cp_Al = 839.67, k_Al = 141.71, sigma_Al = 4.5227E7, rho_Al = 2690.2, Cp_inlet = 883.74, k_inlet = 165.64, sigma_inlet = 3.1687E7, rho_inlet = 2346.7, Cp_outlet = 889.66, k_outlet = 143.57, sigma_outlet = 4.1237E7, rho_outlet = 2438.6, Cp_outlet_sleeve = 743.24, k_outlet_sleeve = 163.21, sigma_outlet_sleeve = 3.3883E7, rho_outlet_sleeve = 2703.5, Cp_inlet_sleeve = 897.4, k_inlet_sleeve = 147.53, sigma_inlet_sleeve = 4.4566E7, rho_inlet_sleeve = 2616.3) (degC), Point: 127Temperature (Cp_Al = 839.67, k_Al = 141.71, sigma_Al = 4.5227E7, rho_Al = 2690.2, Cp_inlet = 883.74, k_inlet = 165.64, sigma_inlet = 3.1687E7, rho_inlet = 2346.7, Cp_outlet = 889.66, k_outlet = 143.57, sigma_outlet = 4.1237E7, rho_outlet = 2438.6, Cp_outlet_sleeve = 743.24, k_outlet_sleeve = 163.21, sigma_outlet_sleeve = 3.3883E7, rho_outlet_sleeve = 2703.5, Cp_inlet_sleeve = 897.4, k_inlet_sleeve = 147.53, sigma_inlet_sleeve = 4.4566E7, rho_inlet_sleeve = 2616.3) (degC), Point: 128Temperature (Cp_Al = 839.67, k_Al = 141.71, sigma_Al = 4.5227E7, rho_Al = 2690.2, Cp_inlet = 883.74, k_inlet = 165.64, sigma_inlet = 3.1687E7, rho_inlet = 2346.7, Cp_outlet = 889.66, k_outlet = 143.57, sigma_outlet = 4.1237E7, rho_outlet = 2438.6, Cp_outlet_sleeve = 743.24, k_outlet_sleeve = 163.21, sigma_outlet_sleeve = 3.3883E7, rho_outlet_sleeve = 2703.5, Cp_inlet_sleeve = 897.4, k_inlet_sleeve = 147.53, sigma_inlet_sleeve = 4.4566E7, rho_inlet_sleeve = 2616.3) (degC), Point: 134Temperature (Cp_Al = 839.67, k_Al = 141.71, sigma_Al = 4.5227E7, rho_Al = 2690.2, Cp_inlet = 883.74, k_inlet = 165.64, sigma_inlet = 3.1687E7, rho_inlet = 2346.7, Cp_outlet = 889.66, k_outlet = 143.57, sigma_outlet = 4.1237E7, rho_outlet = 2438.6, Cp_outlet_sleeve = 743.24, k_outlet_sleeve = 163.21, sigma_outlet_sleeve = 3.3883E7, rho_outlet_sleeve = 2703.5, Cp_inlet_sleeve = 897.4, k_inlet_sleeve = 147.53, sigma_inlet_sleeve = 4.4566E7, rho_inlet_sleeve = 2616.3) (degC), Point: 138Temperature (Cp_Al = 839.67, k_Al = 141.71, sigma_Al = 4.5227E7, rho_Al = 2690.2, Cp_inlet = 883.74, k_inlet = 165.64, sigma_inlet = 3.1687E7, rho_inlet = 2346.7, Cp_outlet = 889.66, k_outlet = 143.57, sigma_outlet = 4.1237E7, rho_outlet = 2438.6, Cp_outlet_sleeve = 743.24, k_outlet_sleeve = 163.21, sigma_outlet_sleeve = 3.3883E7, rho_outlet_sleeve = 2703.5, Cp_inlet_sleeve = 897.4, k_inlet_sleeve = 147.53, sigma_inlet_sleeve = 4.4566E7, rho_inlet_sleeve = 2616.3) (degC), Point: 151Temperature (Cp_Al = 839.67, k_Al = 141.71, sigma_Al = 4.5227E7, rho_Al = 2690.2, Cp_inlet = 883.74, k_inlet = 165.64, sigma_inlet = 3.1687E7, rho_inlet = 2346.7, Cp_outlet = 889.66, k_outlet = 143.57, sigma_outlet = 4.1237E7, rho_outlet = 2438.6, Cp_outlet_sleeve = 743.24, k_outlet_sleeve = 163.21, sigma_outlet_sleeve = 3.3883E7, rho_outlet_sleeve = 2703.5, Cp_inlet_sleeve = 897.4, k_inlet_sleeve = 147.53, sigma_inlet_sleeve = 4.4566E7, rho_inlet_sleeve = 2616.3) (degC), Point: 154Temperature (Cp_Al = 839.67, k_Al = 141.71, sigma_Al = 4.5227E7, rho_Al = 2690.2, Cp_inlet = 883.74, k_inlet = 165.64, sigma_inlet = 3.1687E7, rho_inlet = 2346.7, Cp_outlet = 889.66, k_outlet = 143.57, sigma_outlet = 4.1237E7, rho_outlet = 2438.6, Cp_outlet_sleeve = 743.24, k_outlet_sleeve = 163.21, sigma_outlet_sleeve = 3.3883E7, rho_outlet_sleeve = 2703.5, Cp_inlet_sleeve = 897.4, k_inlet_sleeve = 147.53, sigma_inlet_sleeve = 4.4566E7, rho_inlet_sleeve = 2616.3) (degC), Point: 159Temperature (Cp_Al = 839.67, k_Al = 141.71, sigma_Al = 4.5227E7, rho_Al = 2690.2, Cp_inlet = 883.74, k_inlet = 165.64, sigma_inlet = 3.1687E7, rho_inlet = 2346.7, Cp_outlet = 889.66, k_outlet = 143.57, sigma_outlet = 4.1237E7, rho_outlet = 2438.6, Cp_outlet_sleeve = 743.24, k_outlet_sleeve = 163.21, sigma_outlet_sleeve = 3.3883E7, rho_outlet_sleeve = 2703.5, Cp_inlet_sleeve = 897.4, k_inlet_sleeve = 147.53, sigma_inlet_sleeve = 4.4566E7, rho_inlet_sleeve = 2616.3) (degC), Point: 163Temperature (Cp_Al = 839.67, k_Al = 141.71, sigma_Al = 4.5227E7, rho_Al = 2690.2, Cp_inlet = 883.74, k_inlet = 165.64, sigma_inlet = 3.1687E7, rho_inlet = 2346.7, Cp_outlet = 889.66, k_outlet = 143.57, sigma_outlet = 4.1237E7, rho_outlet = 2438.6, Cp_outlet_sleeve = 743.24, k_outlet_sleeve = 163.21, sigma_outlet_sleeve = 3.3883E7, rho_outlet_sleeve = 2703.5, Cp_inlet_sleeve = 897.4, k_inlet_sleeve = 147.53, sigma_inlet_sleeve = 4.4566E7, rho_inlet_sleeve = 2616.3) (degC), Point: 167Temperature (Cp_Al = 839.67, k_Al = 141.71, sigma_Al = 4.5227E7, rho_Al = 2690.2, Cp_inlet = 883.74, k_inlet = 165.64, sigma_inlet = 3.1687E7, rho_inlet = 2346.7, Cp_outlet = 889.66, k_outlet = 143.57, sigma_outlet = 4.1237E7, rho_outlet = 2438.6, Cp_outlet_sleeve = 743.24, k_outlet_sleeve = 163.21, sigma_outlet_sleeve = 3.3883E7, rho_outlet_sleeve = 2703.5, Cp_inlet_sleeve = 897.4, k_inlet_sleeve = 147.53, sigma_inlet_sleeve = 4.4566E7, rho_inlet_sleeve = 2616.3) (degC), Point: 168Temperature (Cp_Al = 839.67, k_Al = 141.71, sigma_Al = 4.5227E7, rho_Al = 2690.2, Cp_inlet = 883.74, k_inlet = 165.64, sigma_inlet = 3.1687E7, rho_inlet = 2346.7, Cp_outlet = 889.66, k_outlet = 143.57, sigma_outlet = 4.1237E7, rho_outlet = 2438.6, Cp_outlet_sleeve = 743.24, k_outlet_sleeve = 163.21, sigma_outlet_sleeve = 3.3883E7, rho_outlet_sleeve = 2703.5, Cp_inlet_sleeve = 897.4, k_inlet_sleeve = 147.53, sigma_inlet_sleeve = 4.4566E7, rho_inlet_sleeve = 2616.3) (degC), Point: 172Temperature (Cp_Al = 839.67, k_Al = 141.71, sigma_Al = 4.5227E7, rho_Al = 2690.2, Cp_inlet = 883.74, k_inlet = 165.64, sigma_inlet = 3.1687E7, rho_inlet = 2346.7, Cp_outlet = 889.66, k_outlet = 143.57, sigma_outlet = 4.1237E7, rho_outlet = 2438.6, Cp_outlet_sleeve = 743.24, k_outlet_sleeve = 163.21, sigma_outlet_sleeve = 3.3883E7, rho_outlet_sleeve = 2703.5, Cp_inlet_sleeve = 897.4, k_inlet_sleeve = 147.53, sigma_inlet_sleeve = 4.4566E7, rho_inlet_sleeve = 2616.3) (degC), Point: 181Temperature (Cp_Al = 839.67, k_Al = 141.71, sigma_Al = 4.5227E7, rho_Al = 2690.2, Cp_inlet = 883.74, k_inlet = 165.64, sigma_inlet = 3.1687E7, rho_inlet = 2346.7, Cp_outlet = 889.66, k_outlet = 143.57, sigma_outlet = 4.1237E7, rho_outlet = 2438.6, Cp_outlet_sleeve = 743.24, k_outlet_sleeve = 163.21, sigma_outlet_sleeve = 3.3883E7, rho_outlet_sleeve = 2703.5, Cp_inlet_sleeve = 897.4, k_inlet_sleeve = 147.53, sigma_inlet_sleeve = 4.4566E7, rho_inlet_sleeve = 2616.3) (degC), Point: 201Temperature (Cp_Al = 839.67, k_Al = 141.71, sigma_Al = 4.5227E7, rho_Al = 2690.2, Cp_inlet = 883.74, k_inlet = 165.64, sigma_inlet = 3.1687E7, rho_inlet = 2346.7, Cp_outlet = 889.66, k_outlet = 143.57, sigma_outlet = 4.1237E7, rho_outlet = 2438.6, Cp_outlet_sleeve = 743.24, k_outlet_sleeve = 163.21, sigma_outlet_sleeve = 3.3883E7, rho_outlet_sleeve = 2703.5, Cp_inlet_sleeve = 897.4, k_inlet_sleeve = 147.53, sigma_inlet_sleeve = 4.4566E7, rho_inlet_sleeve = 2616.3) (degC), Point: 210Temperature (Cp_Al = 839.67, k_Al = 141.71, sigma_Al = 4.5227E7, rho_Al = 2690.2, Cp_inlet = 883.74, k_inlet = 165.64, sigma_inlet = 3.1687E7, rho_inlet = 2346.7, Cp_outlet = 889.66, k_outlet = 143.57, sigma_outlet = 4.1237E7, rho_outlet = 2438.6, Cp_outlet_sleeve = 743.24, k_outlet_sleeve = 163.21, sigma_outlet_sleeve = 3.3883E7, rho_outlet_sleeve = 2703.5, Cp_inlet_sleeve = 897.4, k_inlet_sleeve = 147.53, sigma_inlet_sleeve = 4.4566E7, rho_inlet_sleeve = 2616.3) (degC), Point: 213Temperature (Cp_Al = 839.67, k_Al = 141.71, sigma_Al = 4.5227E7, rho_Al = 2690.2, Cp_inlet = 883.74, k_inlet = 165.64, sigma_inlet = 3.1687E7, rho_inlet = 2346.7, Cp_outlet = 889.66, k_outlet = 143.57, sigma_outlet = 4.1237E7, rho_outlet = 2438.6, Cp_outlet_sleeve = 743.24, k_outlet_sleeve = 163.21, sigma_outlet_sleeve = 3.3883E7, rho_outlet_sleeve = 2703.5, Cp_inlet_sleeve = 897.4, k_inlet_sleeve = 147.53, sigma_inlet_sleeve = 4.4566E7, rho_inlet_sleeve = 2616.3) (degC), Point: 215Temperature (Cp_Al = 839.67, k_Al = 141.71, sigma_Al = 4.5227E7, rho_Al = 2690.2, Cp_inlet = 883.74, k_inlet = 165.64, sigma_inlet = 3.1687E7, rho_inlet = 2346.7, Cp_outlet = 889.66, k_outlet = 143.57, sigma_outlet = 4.1237E7, rho_outlet = 2438.6, Cp_outlet_sleeve = 743.24, k_outlet_sleeve = 163.21, sigma_outlet_sleeve = 3.3883E7, rho_outlet_sleeve = 2703.5, Cp_inlet_sleeve = 897.4, k_inlet_sleeve = 147.53, sigma_inlet_sleeve = 4.4566E7, rho_inlet_sleeve = 2616.3) (degC), Point: 229Temperature (Cp_Al = 839.67, k_Al = 141.71, sigma_Al = 4.5227E7, rho_Al = 2690.2, Cp_inlet = 883.74, k_inlet = 165.64, sigma_inlet = 3.1687E7, rho_inlet = 2346.7, Cp_outlet = 889.66, k_outlet = 143.57, sigma_outlet = 4.1237E7, rho_outlet = 2438.6, Cp_outlet_sleeve = 743.24, k_outlet_sleeve = 163.21, sigma_outlet_sleeve = 3.3883E7, rho_outlet_sleeve = 2703.5, Cp_inlet_sleeve = 897.4, k_inlet_sleeve = 147.53, sigma_inlet_sleeve = 4.4566E7, rho_inlet_sleeve = 2616.3) (degC), Point: 232Temperature (Cp_Al = 839.67, k_Al = 141.71, sigma_Al = 4.5227E7, rho_Al = 2690.2, Cp_inlet = 883.74, k_inlet = 165.64, sigma_inlet = 3.1687E7, rho_inlet = 2346.7, Cp_outlet = 889.66, k_outlet = 143.57, sigma_outlet = 4.1237E7, rho_outlet = 2438.6, Cp_outlet_sleeve = 743.24, k_outlet_sleeve = 163.21, sigma_outlet_sleeve = 3.3883E7, rho_outlet_sleeve = 2703.5, Cp_inlet_sleeve = 897.4, k_inlet_sleeve = 147.53, sigma_inlet_sleeve = 4.4566E7, rho_inlet_sleeve = 2616.3) (degC), Point: 239Temperature (Cp_Al = 839.67, k_Al = 141.71, sigma_Al = 4.5227E7, rho_Al = 2690.2, Cp_inlet = 883.74, k_inlet = 165.64, sigma_inlet = 3.1687E7, rho_inlet = 2346.7, Cp_outlet = 889.66, k_outlet = 143.57, sigma_outlet = 4.1237E7, rho_outlet = 2438.6, Cp_outlet_sleeve = 743.24, k_outlet_sleeve = 163.21, sigma_outlet_sleeve = 3.3883E7, rho_outlet_sleeve = 2703.5, Cp_inlet_sleeve = 897.4, k_inlet_sleeve = 147.53, sigma_inlet_sleeve = 4.4566E7, rho_inlet_sleeve = 2616.3) (degC), Point: 252Temperature (Cp_Al = 839.67, k_Al = 141.71, sigma_Al = 4.5227E7, rho_Al = 2690.2, Cp_inlet = 883.74, k_inlet = 165.64, sigma_inlet = 3.1687E7, rho_inlet = 2346.7, Cp_outlet = 889.66, k_outlet = 143.57, sigma_outlet = 4.1237E7, rho_outlet = 2438.6, Cp_outlet_sleeve = 743.24, k_outlet_sleeve = 163.21, sigma_outlet_sleeve = 3.3883E7, rho_outlet_sleeve = 2703.5, Cp_inlet_sleeve = 897.4, k_inlet_sleeve = 147.53, sigma_inlet_sleeve = 4.4566E7, rho_inlet_sleeve = 2616.3) (degC), Point: 261Temperature (Cp_Al = 839.67, k_Al = 141.71, sigma_Al = 4.5227E7, rho_Al = 2690.2, Cp_inlet = 883.74, k_inlet = 165.64, sigma_inlet = 3.1687E7, rho_inlet = 2346.7, Cp_outlet = 889.66, k_outlet = 143.57, sigma_outlet = 4.1237E7, rho_outlet = 2438.6, Cp_outlet_sleeve = 743.24, k_outlet_sleeve = 163.21, sigma_outlet_sleeve = 3.3883E7, rho_outlet_sleeve = 2703.5, Cp_inlet_sleeve = 897.4, k_inlet_sleeve = 147.53, sigma_inlet_sleeve = 4.4566E7, rho_inlet_sleeve = 2616.3) (degC), Point: 270Temperature (Cp_Al = 839.67, k_Al = 141.71, sigma_Al = 4.5227E7, rho_Al = 2690.2, Cp_inlet = 883.74, k_inlet = 165.64, sigma_inlet = 3.1687E7, rho_inlet = 2346.7, Cp_outlet = 889.66, k_outlet = 143.57, sigma_outlet = 4.1237E7, rho_outlet = 2438.6, Cp_outlet_sleeve = 743.24, k_outlet_sleeve = 163.21, sigma_outlet_sleeve = 3.3883E7, rho_outlet_sleeve = 2703.5, Cp_inlet_sleeve = 897.4, k_inlet_sleeve = 147.53, sigma_inlet_sleeve = 4.4566E7, rho_inlet_sleeve = 2616.3) (degC), Point: 273Temperature (Cp_Al = 839.67, k_Al = 141.71, sigma_Al = 4.5227E7, rho_Al = 2690.2, Cp_inlet = 883.74, k_inlet = 165.64, sigma_inlet = 3.1687E7, rho_inlet = 2346.7, Cp_outlet = 889.66, k_outlet = 143.57, sigma_outlet = 4.1237E7, rho_outlet = 2438.6, Cp_outlet_sleeve = 743.24, k_outlet_sleeve = 163.21, sigma_outlet_sleeve = 3.3883E7, rho_outlet_sleeve = 2703.5, Cp_inlet_sleeve = 897.4, k_inlet_sleeve = 147.53, sigma_inlet_sleeve = 4.4566E7, rho_inlet_sleeve = 2616.3) (degC), Point: 275
0                        21.660641021713445       21.01384014664785        21.131395616997054       21.0085487169344         21.013768414464096       21.108236677285845       21.0092071825365         21.027878775607633       21.00141202938846        21.02463510124221        21.001286132280597       21.000662313848977       21.009485557663652       21.000109577947967       21.008235445672653       21.02177080304091        21.000055419237015       21.01153838893191        21.000733397825172       21.000301546726234       21.001779404167678       21.000179918011327       21.00027333507927        21.00918970081409        21.118715532957026       21.013193952869244       21.58257487473867        21.008418735977614       21.144198310954664       21.01702142782466        21.73486124955582
3                        315.7527959173201        282.03938745540097       291.37517098686817       286.68106580327503       269.6563189247006        282.95474458456806       281.4632671995296        269.13345689421146       263.8567496873335        275.63035012769546       277.91248175804105       269.90840006332087       266.9906494176232        253.49040675028925       258.70494828208484       248.09168894108757       243.54017409799326       252.2761390462955        253.62493799136416       247.4009065159563        246.64770340828534       240.38438257406358       243.1715654240429        283.4469911860293        285.3850772660669        271.2561702398764        307.33297629695994       288.3046896348827        293.2319416928626        281.19682093588074       319.8329552241296
6                        441.04174515204966       405.7719707953165        419.09953289545103       415.1956371998093        396.5137299099854        414.61558483565193       414.10559536174173       397.86455526944087       390.56588159492935       407.19588335003004       410.4652246514753        402.4418054573098        398.54023149348745       380.17555987306093       387.4024180679395        372.0427195205659        365.85908815877053       378.7847842219784        380.96322703412034       374.73805677490304       373.2207739403955        362.9634707592003        367.32069380019834       415.8995424095723        416.83020435171886       397.79139026103167       435.9076685869635        414.36390270984464       418.4835772434967        402.2073456358537        442.5164520418691
9                        513.9922038993121        477.8095677886961        493.9214551970656        490.78882043920885       468.64686923705415       489.97493140690233       490.3327393813495        471.0580747627124        462.60839295862206       482.5012041329853        486.64225179586197       478.6106857665029        473.837947493044         452.20521850050613       460.57385551539767       444.092177091803         436.94848956642045       452.78721485994697       455.7659163968252        449.6659482771207        447.3814239424428        434.3097386014582        439.59491845362504       492.02648387001375       492.06628054180226       469.72899092637          509.0058295484713        488.4738700598099        491.7961066883789        472.5470131358421        513.8484219114478
12                       564.0117239967431        527.2184357839125        545.343750572005         542.8320850512331        517.2552016835922        540.8490371784653        541.8804295014022        520.3521057196438        511.1582213509645        533.3415240624012        538.1588450784924        530.1254615478202        524.6762030874386        500.7485188947204        509.85459584032105       493.5795129422312        485.7939260660596        503.7339167003282        507.3549864190336        501.3313175711954        498.4189188195961        483.29431515796125       489.2036021339303        543.5166372189246        542.8649592545243        518.212722489278         558.2395984159742        539.6684567808371        542.3404587607633        520.9303838117798        562.8985354365436
15                       601.5962115918675        564.3631562447865        584.01760402794          582.0082096331847        553.3824275212412        578.649748504388         580.2091170002963        556.9590356136416        547.2461488810613        571.1202026444969        576.4673999507798        568.4354721575535        562.4558415960738        536.8337978028264        546.453741075682         530.8286777824777        522.5818815630946        542.1131842250988        546.2527477647975        540.3042225892378        536.8780921351142        520.1834899220424        526.5441533894591        581.8116502994698        580.6180784414516        554.2579004684787        594.8074125720111        578.3528560849257        580.4940789110334        557.4371375100015        599.886210707083
18                       631.5157713680265        593.9511737663945        614.8124474206683        613.2191990580312        581.9293421990392        608.4851695615528        610.4707140518894        585.8587100539502        575.7662137781183        600.9411086592058        606.7158376026263        598.6868010527303        592.2790401493206        565.3531706236008        575.3486638043845        560.5304178558963        551.936933442714         572.7205534725989        577.2889591730885        571.4152707882672        567.5599859598335        549.6199511064762        556.3218934244417        612.0540028047014        610.4231757987932        582.7498053803971        623.6811379021367        609.282924167368         610.9815945266264        586.622692583048         629.4341699421652
21                       657.052401407268         619.221157871094         641.0821658798524        639.8436980652724        606.2276973142556        633.8332109121468        636.1760172527333        610.436561042389         600.0453292632104        626.2791223558307        632.4121082106477        624.3864028006827        617.6197849881869        589.632494588751         599.9233550816746        585.9155229218768        577.044135805552         598.8623819013648        603.7958359343213        597.9937291871845        593.7709941205964        574.7968900247422        581.7734493698389        637.7480979743062        635.7509076970683        607.0093968854123        648.2408054166131        635.739735737076         637.0600947268427        611.623507925748         654.725533355943
24                       679.7591581945073        641.7057416565581        664.4166735860965        663.4853555931808        627.8280100595872        656.3158642749314        658.9646474188834        632.2677337689212        621.6315297365105        648.7547072956878        655.1944073004254        647.1720679917207        640.0981715701396        611.2193396665366        621.7523011634382        608.5130946641023        599.4109526486184        622.1064980337391        627.3555168609978        621.6195548347174        617.0780486557167        597.224350792592         604.4295077334278        660.5304623514971        658.2196831185256        628.5817283565052        670.0588716890088        659.2808930645605        660.2735694550997        633.922924993851         677.2659045317919
27                       700.5467225007235        662.3038900088292        685.7489489586221        685.0858316025617        647.6311660089101        676.8757237090415        679.7899707427482        652.2668855387755        641.4240971941938        669.3094818312           676.0151980685768        667.9960590885447        660.6556333547536        631.012739326807         641.7497952885044        629.2192765045392        619.921028783906         643.3725842802993        648.8967701136485        643.220665305215         638.4006392822208        617.7875729060592        625.1872867137           681.3525548211711        678.7698631765845        648.3642070517309        690.0483175130992        680.8209171899268        681.5276939512402        654.389918048277         697.937267473248
