% Model:              brazing.mph
% Version:            COMSOL 5.3.0.223
% Date:               Oct 24 2018, 02:09
% Table:              Table 3 - 
% Time (s)               Temperature (Cp_Al = 892.01, k_Al = 144.69, sigma_Al = 3.5077E7, rho_Al = 2585.9, Cp_inlet = 969.2, k_inlet = 148.7, sigma_inlet = 3.5369E7, rho_inlet = 2440.9, Cp_outlet = 795.78, k_outlet = 153.97, sigma_outlet = 3.4106E7, rho_outlet = 2683.2, Cp_outlet_sleeve = 910.43, k_outlet_sleeve = 166.07, sigma_outlet_sleeve = 3.5214E7, rho_outlet_sleeve = 2305, Cp_inlet_sleeve = 928.93, k_inlet_sleeve = 166.97, sigma_inlet_sleeve = 3.9054E7, rho_inlet_sleeve = 2567.7) (degC), Point: 55Temperature (Cp_Al = 892.01, k_Al = 144.69, sigma_Al = 3.5077E7, rho_Al = 2585.9, Cp_inlet = 969.2, k_inlet = 148.7, sigma_inlet = 3.5369E7, rho_inlet = 2440.9, Cp_outlet = 795.78, k_outlet = 153.97, sigma_outlet = 3.4106E7, rho_outlet = 2683.2, Cp_outlet_sleeve = 910.43, k_outlet_sleeve = 166.07, sigma_outlet_sleeve = 3.5214E7, rho_outlet_sleeve = 2305, Cp_inlet_sleeve = 928.93, k_inlet_sleeve = 166.97, sigma_inlet_sleeve = 3.9054E7, rho_inlet_sleeve = 2567.7) (degC), Point: 56Temperature (Cp_Al = 892.01, k_Al = 144.69, sigma_Al = 3.5077E7, rho_Al = 2585.9, Cp_inlet = 969.2, k_inlet = 148.7, sigma_inlet = 3.5369E7, rho_inlet = 2440.9, Cp_outlet = 795.78, k_outlet = 153.97, sigma_outlet = 3.4106E7, rho_outlet = 2683.2, Cp_outlet_sleeve = 910.43, k_outlet_sleeve = 166.07, sigma_outlet_sleeve = 3.5214E7, rho_outlet_sleeve = 2305, Cp_inlet_sleeve = 928.93, k_inlet_sleeve = 166.97, sigma_inlet_sleeve = 3.9054E7, rho_inlet_sleeve = 2567.7) (degC), Point: 60Temperature (Cp_Al = 892.01, k_Al = 144.69, sigma_Al = 3.5077E7, rho_Al = 2585.9, Cp_inlet = 969.2, k_inlet = 148.7, sigma_inlet = 3.5369E7, rho_inlet = 2440.9, Cp_outlet = 795.78, k_outlet = 153.97, sigma_outlet = 3.4106E7, rho_outlet = 2683.2, Cp_outlet_sleeve = 910.43, k_outlet_sleeve = 166.07, sigma_outlet_sleeve = 3.5214E7, rho_outlet_sleeve = 2305, Cp_inlet_sleeve = 928.93, k_inlet_sleeve = 166.97, sigma_inlet_sleeve = 3.9054E7, rho_inlet_sleeve = 2567.7) (degC), Point: 69Temperature (Cp_Al = 892.01, k_Al = 144.69, sigma_Al = 3.5077E7, rho_Al = 2585.9, Cp_inlet = 969.2, k_inlet = 148.7, sigma_inlet = 3.5369E7, rho_inlet = 2440.9, Cp_outlet = 795.78, k_outlet = 153.97, sigma_outlet = 3.4106E7, rho_outlet = 2683.2, Cp_outlet_sleeve = 910.43, k_outlet_sleeve = 166.07, sigma_outlet_sleeve = 3.5214E7, rho_outlet_sleeve = 2305, Cp_inlet_sleeve = 928.93, k_inlet_sleeve = 166.97, sigma_inlet_sleeve = 3.9054E7, rho_inlet_sleeve = 2567.7) (degC), Point: 90Temperature (Cp_Al = 892.01, k_Al = 144.69, sigma_Al = 3.5077E7, rho_Al = 2585.9, Cp_inlet = 969.2, k_inlet = 148.7, sigma_inlet = 3.5369E7, rho_inlet = 2440.9, Cp_outlet = 795.78, k_outlet = 153.97, sigma_outlet = 3.4106E7, rho_outlet = 2683.2, Cp_outlet_sleeve = 910.43, k_outlet_sleeve = 166.07, sigma_outlet_sleeve = 3.5214E7, rho_outlet_sleeve = 2305, Cp_inlet_sleeve = 928.93, k_inlet_sleeve = 166.97, sigma_inlet_sleeve = 3.9054E7, rho_inlet_sleeve = 2567.7) (degC), Point: 98Temperature (Cp_Al = 892.01, k_Al = 144.69, sigma_Al = 3.5077E7, rho_Al = 2585.9, Cp_inlet = 969.2, k_inlet = 148.7, sigma_inlet = 3.5369E7, rho_inlet = 2440.9, Cp_outlet = 795.78, k_outlet = 153.97, sigma_outlet = 3.4106E7, rho_outlet = 2683.2, Cp_outlet_sleeve = 910.43, k_outlet_sleeve = 166.07, sigma_outlet_sleeve = 3.5214E7, rho_outlet_sleeve = 2305, Cp_inlet_sleeve = 928.93, k_inlet_sleeve = 166.97, sigma_inlet_sleeve = 3.9054E7, rho_inlet_sleeve = 2567.7) (degC), Point: 102Temperature (Cp_Al = 892.01, k_Al = 144.69, sigma_Al = 3.5077E7, rho_Al = 2585.9, Cp_inlet = 969.2, k_inlet = 148.7, sigma_inlet = 3.5369E7, rho_inlet = 2440.9, Cp_outlet = 795.78, k_outlet = 153.97, sigma_outlet = 3.4106E7, rho_outlet = 2683.2, Cp_outlet_sleeve = 910.43, k_outlet_sleeve = 166.07, sigma_outlet_sleeve = 3.5214E7, rho_outlet_sleeve = 2305, Cp_inlet_sleeve = 928.93, k_inlet_sleeve = 166.97, sigma_inlet_sleeve = 3.9054E7, rho_inlet_sleeve = 2567.7) (degC), Point: 127Temperature (Cp_Al = 892.01, k_Al = 144.69, sigma_Al = 3.5077E7, rho_Al = 2585.9, Cp_inlet = 969.2, k_inlet = 148.7, sigma_inlet = 3.5369E7, rho_inlet = 2440.9, Cp_outlet = 795.78, k_outlet = 153.97, sigma_outlet = 3.4106E7, rho_outlet = 2683.2, Cp_outlet_sleeve = 910.43, k_outlet_sleeve = 166.07, sigma_outlet_sleeve = 3.5214E7, rho_outlet_sleeve = 2305, Cp_inlet_sleeve = 928.93, k_inlet_sleeve = 166.97, sigma_inlet_sleeve = 3.9054E7, rho_inlet_sleeve = 2567.7) (degC), Point: 128Temperature (Cp_Al = 892.01, k_Al = 144.69, sigma_Al = 3.5077E7, rho_Al = 2585.9, Cp_inlet = 969.2, k_inlet = 148.7, sigma_inlet = 3.5369E7, rho_inlet = 2440.9, Cp_outlet = 795.78, k_outlet = 153.97, sigma_outlet = 3.4106E7, rho_outlet = 2683.2, Cp_outlet_sleeve = 910.43, k_outlet_sleeve = 166.07, sigma_outlet_sleeve = 3.5214E7, rho_outlet_sleeve = 2305, Cp_inlet_sleeve = 928.93, k_inlet_sleeve = 166.97, sigma_inlet_sleeve = 3.9054E7, rho_inlet_sleeve = 2567.7) (degC), Point: 134Temperature (Cp_Al = 892.01, k_Al = 144.69, sigma_Al = 3.5077E7, rho_Al = 2585.9, Cp_inlet = 969.2, k_inlet = 148.7, sigma_inlet = 3.5369E7, rho_inlet = 2440.9, Cp_outlet = 795.78, k_outlet = 153.97, sigma_outlet = 3.4106E7, rho_outlet = 2683.2, Cp_outlet_sleeve = 910.43, k_outlet_sleeve = 166.07, sigma_outlet_sleeve = 3.5214E7, rho_outlet_sleeve = 2305, Cp_inlet_sleeve = 928.93, k_inlet_sleeve = 166.97, sigma_inlet_sleeve = 3.9054E7, rho_inlet_sleeve = 2567.7) (degC), Point: 138Temperature (Cp_Al = 892.01, k_Al = 144.69, sigma_Al = 3.5077E7, rho_Al = 2585.9, Cp_inlet = 969.2, k_inlet = 148.7, sigma_inlet = 3.5369E7, rho_inlet = 2440.9, Cp_outlet = 795.78, k_outlet = 153.97, sigma_outlet = 3.4106E7, rho_outlet = 2683.2, Cp_outlet_sleeve = 910.43, k_outlet_sleeve = 166.07, sigma_outlet_sleeve = 3.5214E7, rho_outlet_sleeve = 2305, Cp_inlet_sleeve = 928.93, k_inlet_sleeve = 166.97, sigma_inlet_sleeve = 3.9054E7, rho_inlet_sleeve = 2567.7) (degC), Point: 151Temperature (Cp_Al = 892.01, k_Al = 144.69, sigma_Al = 3.5077E7, rho_Al = 2585.9, Cp_inlet = 969.2, k_inlet = 148.7, sigma_inlet = 3.5369E7, rho_inlet = 2440.9, Cp_outlet = 795.78, k_outlet = 153.97, sigma_outlet = 3.4106E7, rho_outlet = 2683.2, Cp_outlet_sleeve = 910.43, k_outlet_sleeve = 166.07, sigma_outlet_sleeve = 3.5214E7, rho_outlet_sleeve = 2305, Cp_inlet_sleeve = 928.93, k_inlet_sleeve = 166.97, sigma_inlet_sleeve = 3.9054E7, rho_inlet_sleeve = 2567.7) (degC), Point: 154Temperature (Cp_Al = 892.01, k_Al = 144.69, sigma_Al = 3.5077E7, rho_Al = 2585.9, Cp_inlet = 969.2, k_inlet = 148.7, sigma_inlet = 3.5369E7, rho_inlet = 2440.9, Cp_outlet = 795.78, k_outlet = 153.97, sigma_outlet = 3.4106E7, rho_outlet = 2683.2, Cp_outlet_sleeve = 910.43, k_outlet_sleeve = 166.07, sigma_outlet_sleeve = 3.5214E7, rho_outlet_sleeve = 2305, Cp_inlet_sleeve = 928.93, k_inlet_sleeve = 166.97, sigma_inlet_sleeve = 3.9054E7, rho_inlet_sleeve = 2567.7) (degC), Point: 159Temperature (Cp_Al = 892.01, k_Al = 144.69, sigma_Al = 3.5077E7, rho_Al = 2585.9, Cp_inlet = 969.2, k_inlet = 148.7, sigma_inlet = 3.5369E7, rho_inlet = 2440.9, Cp_outlet = 795.78, k_outlet = 153.97, sigma_outlet = 3.4106E7, rho_outlet = 2683.2, Cp_outlet_sleeve = 910.43, k_outlet_sleeve = 166.07, sigma_outlet_sleeve = 3.5214E7, rho_outlet_sleeve = 2305, Cp_inlet_sleeve = 928.93, k_inlet_sleeve = 166.97, sigma_inlet_sleeve = 3.9054E7, rho_inlet_sleeve = 2567.7) (degC), Point: 163Temperature (Cp_Al = 892.01, k_Al = 144.69, sigma_Al = 3.5077E7, rho_Al = 2585.9, Cp_inlet = 969.2, k_inlet = 148.7, sigma_inlet = 3.5369E7, rho_inlet = 2440.9, Cp_outlet = 795.78, k_outlet = 153.97, sigma_outlet = 3.4106E7, rho_outlet = 2683.2, Cp_outlet_sleeve = 910.43, k_outlet_sleeve = 166.07, sigma_outlet_sleeve = 3.5214E7, rho_outlet_sleeve = 2305, Cp_inlet_sleeve = 928.93, k_inlet_sleeve = 166.97, sigma_inlet_sleeve = 3.9054E7, rho_inlet_sleeve = 2567.7) (degC), Point: 167Temperature (Cp_Al = 892.01, k_Al = 144.69, sigma_Al = 3.5077E7, rho_Al = 2585.9, Cp_inlet = 969.2, k_inlet = 148.7, sigma_inlet = 3.5369E7, rho_inlet = 2440.9, Cp_outlet = 795.78, k_outlet = 153.97, sigma_outlet = 3.4106E7, rho_outlet = 2683.2, Cp_outlet_sleeve = 910.43, k_outlet_sleeve = 166.07, sigma_outlet_sleeve = 3.5214E7, rho_outlet_sleeve = 2305, Cp_inlet_sleeve = 928.93, k_inlet_sleeve = 166.97, sigma_inlet_sleeve = 3.9054E7, rho_inlet_sleeve = 2567.7) (degC), Point: 168Temperature (Cp_Al = 892.01, k_Al = 144.69, sigma_Al = 3.5077E7, rho_Al = 2585.9, Cp_inlet = 969.2, k_inlet = 148.7, sigma_inlet = 3.5369E7, rho_inlet = 2440.9, Cp_outlet = 795.78, k_outlet = 153.97, sigma_outlet = 3.4106E7, rho_outlet = 2683.2, Cp_outlet_sleeve = 910.43, k_outlet_sleeve = 166.07, sigma_outlet_sleeve = 3.5214E7, rho_outlet_sleeve = 2305, Cp_inlet_sleeve = 928.93, k_inlet_sleeve = 166.97, sigma_inlet_sleeve = 3.9054E7, rho_inlet_sleeve = 2567.7) (degC), Point: 172Temperature (Cp_Al = 892.01, k_Al = 144.69, sigma_Al = 3.5077E7, rho_Al = 2585.9, Cp_inlet = 969.2, k_inlet = 148.7, sigma_inlet = 3.5369E7, rho_inlet = 2440.9, Cp_outlet = 795.78, k_outlet = 153.97, sigma_outlet = 3.4106E7, rho_outlet = 2683.2, Cp_outlet_sleeve = 910.43, k_outlet_sleeve = 166.07, sigma_outlet_sleeve = 3.5214E7, rho_outlet_sleeve = 2305, Cp_inlet_sleeve = 928.93, k_inlet_sleeve = 166.97, sigma_inlet_sleeve = 3.9054E7, rho_inlet_sleeve = 2567.7) (degC), Point: 181Temperature (Cp_Al = 892.01, k_Al = 144.69, sigma_Al = 3.5077E7, rho_Al = 2585.9, Cp_inlet = 969.2, k_inlet = 148.7, sigma_inlet = 3.5369E7, rho_inlet = 2440.9, Cp_outlet = 795.78, k_outlet = 153.97, sigma_outlet = 3.4106E7, rho_outlet = 2683.2, Cp_outlet_sleeve = 910.43, k_outlet_sleeve = 166.07, sigma_outlet_sleeve = 3.5214E7, rho_outlet_sleeve = 2305, Cp_inlet_sleeve = 928.93, k_inlet_sleeve = 166.97, sigma_inlet_sleeve = 3.9054E7, rho_inlet_sleeve = 2567.7) (degC), Point: 201Temperature (Cp_Al = 892.01, k_Al = 144.69, sigma_Al = 3.5077E7, rho_Al = 2585.9, Cp_inlet = 969.2, k_inlet = 148.7, sigma_inlet = 3.5369E7, rho_inlet = 2440.9, Cp_outlet = 795.78, k_outlet = 153.97, sigma_outlet = 3.4106E7, rho_outlet = 2683.2, Cp_outlet_sleeve = 910.43, k_outlet_sleeve = 166.07, sigma_outlet_sleeve = 3.5214E7, rho_outlet_sleeve = 2305, Cp_inlet_sleeve = 928.93, k_inlet_sleeve = 166.97, sigma_inlet_sleeve = 3.9054E7, rho_inlet_sleeve = 2567.7) (degC), Point: 210Temperature (Cp_Al = 892.01, k_Al = 144.69, sigma_Al = 3.5077E7, rho_Al = 2585.9, Cp_inlet = 969.2, k_inlet = 148.7, sigma_inlet = 3.5369E7, rho_inlet = 2440.9, Cp_outlet = 795.78, k_outlet = 153.97, sigma_outlet = 3.4106E7, rho_outlet = 2683.2, Cp_outlet_sleeve = 910.43, k_outlet_sleeve = 166.07, sigma_outlet_sleeve = 3.5214E7, rho_outlet_sleeve = 2305, Cp_inlet_sleeve = 928.93, k_inlet_sleeve = 166.97, sigma_inlet_sleeve = 3.9054E7, rho_inlet_sleeve = 2567.7) (degC), Point: 213Temperature (Cp_Al = 892.01, k_Al = 144.69, sigma_Al = 3.5077E7, rho_Al = 2585.9, Cp_inlet = 969.2, k_inlet = 148.7, sigma_inlet = 3.5369E7, rho_inlet = 2440.9, Cp_outlet = 795.78, k_outlet = 153.97, sigma_outlet = 3.4106E7, rho_outlet = 2683.2, Cp_outlet_sleeve = 910.43, k_outlet_sleeve = 166.07, sigma_outlet_sleeve = 3.5214E7, rho_outlet_sleeve = 2305, Cp_inlet_sleeve = 928.93, k_inlet_sleeve = 166.97, sigma_inlet_sleeve = 3.9054E7, rho_inlet_sleeve = 2567.7) (degC), Point: 215Temperature (Cp_Al = 892.01, k_Al = 144.69, sigma_Al = 3.5077E7, rho_Al = 2585.9, Cp_inlet = 969.2, k_inlet = 148.7, sigma_inlet = 3.5369E7, rho_inlet = 2440.9, Cp_outlet = 795.78, k_outlet = 153.97, sigma_outlet = 3.4106E7, rho_outlet = 2683.2, Cp_outlet_sleeve = 910.43, k_outlet_sleeve = 166.07, sigma_outlet_sleeve = 3.5214E7, rho_outlet_sleeve = 2305, Cp_inlet_sleeve = 928.93, k_inlet_sleeve = 166.97, sigma_inlet_sleeve = 3.9054E7, rho_inlet_sleeve = 2567.7) (degC), Point: 229Temperature (Cp_Al = 892.01, k_Al = 144.69, sigma_Al = 3.5077E7, rho_Al = 2585.9, Cp_inlet = 969.2, k_inlet = 148.7, sigma_inlet = 3.5369E7, rho_inlet = 2440.9, Cp_outlet = 795.78, k_outlet = 153.97, sigma_outlet = 3.4106E7, rho_outlet = 2683.2, Cp_outlet_sleeve = 910.43, k_outlet_sleeve = 166.07, sigma_outlet_sleeve = 3.5214E7, rho_outlet_sleeve = 2305, Cp_inlet_sleeve = 928.93, k_inlet_sleeve = 166.97, sigma_inlet_sleeve = 3.9054E7, rho_inlet_sleeve = 2567.7) (degC), Point: 232Temperature (Cp_Al = 892.01, k_Al = 144.69, sigma_Al = 3.5077E7, rho_Al = 2585.9, Cp_inlet = 969.2, k_inlet = 148.7, sigma_inlet = 3.5369E7, rho_inlet = 2440.9, Cp_outlet = 795.78, k_outlet = 153.97, sigma_outlet = 3.4106E7, rho_outlet = 2683.2, Cp_outlet_sleeve = 910.43, k_outlet_sleeve = 166.07, sigma_outlet_sleeve = 3.5214E7, rho_outlet_sleeve = 2305, Cp_inlet_sleeve = 928.93, k_inlet_sleeve = 166.97, sigma_inlet_sleeve = 3.9054E7, rho_inlet_sleeve = 2567.7) (degC), Point: 239Temperature (Cp_Al = 892.01, k_Al = 144.69, sigma_Al = 3.5077E7, rho_Al = 2585.9, Cp_inlet = 969.2, k_inlet = 148.7, sigma_inlet = 3.5369E7, rho_inlet = 2440.9, Cp_outlet = 795.78, k_outlet = 153.97, sigma_outlet = 3.4106E7, rho_outlet = 2683.2, Cp_outlet_sleeve = 910.43, k_outlet_sleeve = 166.07, sigma_outlet_sleeve = 3.5214E7, rho_outlet_sleeve = 2305, Cp_inlet_sleeve = 928.93, k_inlet_sleeve = 166.97, sigma_inlet_sleeve = 3.9054E7, rho_inlet_sleeve = 2567.7) (degC), Point: 252Temperature (Cp_Al = 892.01, k_Al = 144.69, sigma_Al = 3.5077E7, rho_Al = 2585.9, Cp_inlet = 969.2, k_inlet = 148.7, sigma_inlet = 3.5369E7, rho_inlet = 2440.9, Cp_outlet = 795.78, k_outlet = 153.97, sigma_outlet = 3.4106E7, rho_outlet = 2683.2, Cp_outlet_sleeve = 910.43, k_outlet_sleeve = 166.07, sigma_outlet_sleeve = 3.5214E7, rho_outlet_sleeve = 2305, Cp_inlet_sleeve = 928.93, k_inlet_sleeve = 166.97, sigma_inlet_sleeve = 3.9054E7, rho_inlet_sleeve = 2567.7) (degC), Point: 261Temperature (Cp_Al = 892.01, k_Al = 144.69, sigma_Al = 3.5077E7, rho_Al = 2585.9, Cp_inlet = 969.2, k_inlet = 148.7, sigma_inlet = 3.5369E7, rho_inlet = 2440.9, Cp_outlet = 795.78, k_outlet = 153.97, sigma_outlet = 3.4106E7, rho_outlet = 2683.2, Cp_outlet_sleeve = 910.43, k_outlet_sleeve = 166.07, sigma_outlet_sleeve = 3.5214E7, rho_outlet_sleeve = 2305, Cp_inlet_sleeve = 928.93, k_inlet_sleeve = 166.97, sigma_inlet_sleeve = 3.9054E7, rho_inlet_sleeve = 2567.7) (degC), Point: 270Temperature (Cp_Al = 892.01, k_Al = 144.69, sigma_Al = 3.5077E7, rho_Al = 2585.9, Cp_inlet = 969.2, k_inlet = 148.7, sigma_inlet = 3.5369E7, rho_inlet = 2440.9, Cp_outlet = 795.78, k_outlet = 153.97, sigma_outlet = 3.4106E7, rho_outlet = 2683.2, Cp_outlet_sleeve = 910.43, k_outlet_sleeve = 166.07, sigma_outlet_sleeve = 3.5214E7, rho_outlet_sleeve = 2305, Cp_inlet_sleeve = 928.93, k_inlet_sleeve = 166.97, sigma_inlet_sleeve = 3.9054E7, rho_inlet_sleeve = 2567.7) (degC), Point: 273Temperature (Cp_Al = 892.01, k_Al = 144.69, sigma_Al = 3.5077E7, rho_Al = 2585.9, Cp_inlet = 969.2, k_inlet = 148.7, sigma_inlet = 3.5369E7, rho_inlet = 2440.9, Cp_outlet = 795.78, k_outlet = 153.97, sigma_outlet = 3.4106E7, rho_outlet = 2683.2, Cp_outlet_sleeve = 910.43, k_outlet_sleeve = 166.07, sigma_outlet_sleeve = 3.5214E7, rho_outlet_sleeve = 2305, Cp_inlet_sleeve = 928.93, k_inlet_sleeve = 166.97, sigma_inlet_sleeve = 3.9054E7, rho_inlet_sleeve = 2567.7) (degC), Point: 275
0                        21.647403282265998       21.013029158119707       21.133065667552444       21.008985700852918       21.013781317891244       21.108509682924534       21.008474882484734       21.02532842859182        21.001454384878855       21.024647924219778       21.0011945361054         21.000626881186008       21.009531359624816       21.000109468089533       21.00753361353719        21.02126589998778        21.0000548379478         21.011648415137756       21.00074991441454        21.000299863103237       21.001780006996512       21.000174150908208       21.000267556176198       21.00846473037916        21.119044773336952       21.013242276143274       21.537485741408318       21.008890276798127       21.146088817574707       21.016223607794984       21.720136934735024
3                        313.5959719190047        279.9245926366797        290.24792019535187       285.8171234828501        260.1810577701516        272.5440776460249        270.74121803447485       259.32716202639756       254.82927841284845       265.1350185217724        267.0185484228989        258.5451162460332        256.0570634224158        244.10141393879053       248.70811722359076       247.48303574506576       242.868738609253         252.3495868514418        254.03225601843485       247.5221884197657        246.43206086346504       239.44578094205724       242.31165796609366       272.7839475070962        275.01299567864703       261.7098855482453        293.1384241034957        287.30903276526465       291.98712716002603       279.0167835871755        317.53894017265964
6                        439.39994634706363       404.21262405646155       418.3835502008775        414.7095386941926        382.67598636006176       400.047692378948         399.3555663855318        383.5907061338055        377.15866416348365       392.5275126882316        395.5268406316868        387.0351555670178        383.43514543741014       366.40738673590886       372.9396548170474        371.96876865347224       365.7636865587516        379.2889569656186        381.76783117338084       375.2322070102066        373.40846760556826       362.5634939617486        366.9617588990292        401.1793261197057        402.26943898386          383.8481018585171        417.2297694177165        413.755821668483         417.6557809163488        400.57917650528987       440.7355115340655
9                        513.1778621711212        477.09476725923037       493.98534188567373       491.0622759666119        452.61421146147313       473.2912194255214        473.5393188699187        454.52221998784864       446.9968678255426        465.7090625122677        469.6521841613534        461.1510337257407        456.60832512360696       436.23318351135913       443.8499505378885        444.85793794493077       437.70884388040804       454.08823934753786       457.3492271349111        450.94046537397855       448.36624831266374       434.7632002488326        440.0741273016987        475.246749252036         475.37216668161443       453.5722462169956        488.0574437744382        488.6653723344184        491.78227529988703       471.78336594889345       512.9176566834628
12                       563.8025006689597        527.1168036123262        545.9999029629059        543.6931787353781        499.6866406555373        522.6351474921715        523.5929656728656        502.22503642292907       494.0050012901121        515.0143464499286        519.6696544511115        511.1655911169844        505.91080890575245       483.2351253024383        491.5401920083284        494.95635287678044       487.17268595042697       505.63642910873705       509.5366923592966        503.21697423244143       500.0165712642463        484.37494750478606       490.3031443916457        525.232729943819         524.6297096226522        500.50873825915073       535.6949154220425        540.4825704361269        542.9492479929414        520.7996883611647        562.5945722641227
15                       602.2095563006413        565.0828758368887        585.506350943091         583.7067795754625        534.9038396182752        559.4916360000504        560.9884732411781        537.8759135643842        529.1786567312533        551.8452508082302        557.0413446371591        548.5380400444787        542.7422607026999        518.4066616633909        527.184199711741         533.0289942465864        524.7822643544407        544.8517235377062        549.276526075072         543.0439555995391        539.3229044379998        522.095576832455         528.4770956432607        562.5871720825619        561.4308337610856        535.6358917739918        571.3033412887933        580.0261255175583        581.9538381385967        558.1383888447461        600.4168390097117
18                       632.9668730799929        595.5033950197917        617.1601158368619        615.7865283120238        562.7451638116574        588.5533852644703        590.4692760395           566.0264824141572        556.9900671635511        580.8899052672101        586.5063308762349        578.0055341870833        571.7890591504666        546.2181286994002        555.3311564006506        563.5681629180484        554.9689836299452        576.3195887130474        581.1839372718435        575.0363473436364        570.8749021706388        552.3727799324625        559.1012121551865        592.0433923807191        590.4568758196239        563.416821627833         599.4260020029254        611.8403396652865        613.3133222198767        588.1639736568858        630.8110545223076
21                       659.2663838670735        621.530278625643         644.2161001622391        643.208179225898         586.34724252295          613.1153006380715        615.3705062183951        589.8647981022467        580.5706857700422        605.4398927623589        611.3965820526333        602.8990054746066        596.3418652422677        569.799916632538         579.167657244006         589.7158482619144        580.8324101504537        603.2487978574292        608.489718912235         602.4223419420999        597.8816111331299        578.3142212775948        585.3233828095264        616.9295771752099        614.9948054977585        586.9766674952982        623.2451889355505        639.1067610834566        640.1889130347212        613.9287746912415        656.8729602905362
24                       682.7735054904748        644.8083298711259        668.3748381177015        667.6848316690522        607.3701701914354        634.9287133551466        637.4689431414811        611.0786659628839        601.577683882549         627.2447030000055        633.4871320527028        624.9930020021587        618.1497289228615        590.8086398719428        600.3807206739923        613.1117454056699        603.9902862753969        627.3163053580136        632.8840697057342        626.8902248469989        622.0193994570241        601.5406695156727        608.7853016577519        639.0187964127304        636.791601371164         607.9690754033473        644.4454978586737        663.4898842328596        664.23248816714          637.0248714705862        680.2173262062969
27                       704.333835770644         666.1729420258001        690.5007905855229        690.0881784833607        626.6813272495933        654.9101374161579        657.6955038271797        630.5497019040271        620.876779132627         647.2198159205017        653.7079241611896        645.2172236758315        638.1279026463461        610.1097028926556        619.8515292452477        634.5880183999477        625.2638141573642        649.3743956759339        655.2269315333166        649.2993318725105        644.1404850486833        622.8747338638586        630.3201114509579        659.2399284022792        656.7613523179325        627.2577608001258        663.9067342223381        685.8368290994281        686.2836043716437        658.2597913003401        701.6632018897521
