% Model:              brazing.mph
% Version:            COMSOL 5.3.0.223
% Date:               Oct 24 2018, 04:51
% Table:              Table 3 - 
% Time (s)               Temperature (Cp_Al = 654.77, k_Al = 118.4, sigma_Al = 5.1977E7, rho_Al = 3124.7, Cp_inlet = 974.01, k_inlet = 187.05, sigma_inlet = 2.7947E7, rho_inlet = 1786.8, Cp_outlet = 898.49, k_outlet = 111.01, sigma_outlet = 4.7927E7, rho_outlet = 2456.8, Cp_outlet_sleeve = 610.3, k_outlet_sleeve = 174.07, sigma_outlet_sleeve = 3.0578E7, rho_outlet_sleeve = 2947.9, Cp_inlet_sleeve = 847.62, k_inlet_sleeve = 150.66, sigma_inlet_sleeve = 4.628E7, rho_inlet_sleeve = 2428.7) (degC), Point: 55Temperature (Cp_Al = 654.77, k_Al = 118.4, sigma_Al = 5.1977E7, rho_Al = 3124.7, Cp_inlet = 974.01, k_inlet = 187.05, sigma_inlet = 2.7947E7, rho_inlet = 1786.8, Cp_outlet = 898.49, k_outlet = 111.01, sigma_outlet = 4.7927E7, rho_outlet = 2456.8, Cp_outlet_sleeve = 610.3, k_outlet_sleeve = 174.07, sigma_outlet_sleeve = 3.0578E7, rho_outlet_sleeve = 2947.9, Cp_inlet_sleeve = 847.62, k_inlet_sleeve = 150.66, sigma_inlet_sleeve = 4.628E7, rho_inlet_sleeve = 2428.7) (degC), Point: 56Temperature (Cp_Al = 654.77, k_Al = 118.4, sigma_Al = 5.1977E7, rho_Al = 3124.7, Cp_inlet = 974.01, k_inlet = 187.05, sigma_inlet = 2.7947E7, rho_inlet = 1786.8, Cp_outlet = 898.49, k_outlet = 111.01, sigma_outlet = 4.7927E7, rho_outlet = 2456.8, Cp_outlet_sleeve = 610.3, k_outlet_sleeve = 174.07, sigma_outlet_sleeve = 3.0578E7, rho_outlet_sleeve = 2947.9, Cp_inlet_sleeve = 847.62, k_inlet_sleeve = 150.66, sigma_inlet_sleeve = 4.628E7, rho_inlet_sleeve = 2428.7) (degC), Point: 60Temperature (Cp_Al = 654.77, k_Al = 118.4, sigma_Al = 5.1977E7, rho_Al = 3124.7, Cp_inlet = 974.01, k_inlet = 187.05, sigma_inlet = 2.7947E7, rho_inlet = 1786.8, Cp_outlet = 898.49, k_outlet = 111.01, sigma_outlet = 4.7927E7, rho_outlet = 2456.8, Cp_outlet_sleeve = 610.3, k_outlet_sleeve = 174.07, sigma_outlet_sleeve = 3.0578E7, rho_outlet_sleeve = 2947.9, Cp_inlet_sleeve = 847.62, k_inlet_sleeve = 150.66, sigma_inlet_sleeve = 4.628E7, rho_inlet_sleeve = 2428.7) (degC), Point: 69Temperature (Cp_Al = 654.77, k_Al = 118.4, sigma_Al = 5.1977E7, rho_Al = 3124.7, Cp_inlet = 974.01, k_inlet = 187.05, sigma_inlet = 2.7947E7, rho_inlet = 1786.8, Cp_outlet = 898.49, k_outlet = 111.01, sigma_outlet = 4.7927E7, rho_outlet = 2456.8, Cp_outlet_sleeve = 610.3, k_outlet_sleeve = 174.07, sigma_outlet_sleeve = 3.0578E7, rho_outlet_sleeve = 2947.9, Cp_inlet_sleeve = 847.62, k_inlet_sleeve = 150.66, sigma_inlet_sleeve = 4.628E7, rho_inlet_sleeve = 2428.7) (degC), Point: 90Temperature (Cp_Al = 654.77, k_Al = 118.4, sigma_Al = 5.1977E7, rho_Al = 3124.7, Cp_inlet = 974.01, k_inlet = 187.05, sigma_inlet = 2.7947E7, rho_inlet = 1786.8, Cp_outlet = 898.49, k_outlet = 111.01, sigma_outlet = 4.7927E7, rho_outlet = 2456.8, Cp_outlet_sleeve = 610.3, k_outlet_sleeve = 174.07, sigma_outlet_sleeve = 3.0578E7, rho_outlet_sleeve = 2947.9, Cp_inlet_sleeve = 847.62, k_inlet_sleeve = 150.66, sigma_inlet_sleeve = 4.628E7, rho_inlet_sleeve = 2428.7) (degC), Point: 98Temperature (Cp_Al = 654.77, k_Al = 118.4, sigma_Al = 5.1977E7, rho_Al = 3124.7, Cp_inlet = 974.01, k_inlet = 187.05, sigma_inlet = 2.7947E7, rho_inlet = 1786.8, Cp_outlet = 898.49, k_outlet = 111.01, sigma_outlet = 4.7927E7, rho_outlet = 2456.8, Cp_outlet_sleeve = 610.3, k_outlet_sleeve = 174.07, sigma_outlet_sleeve = 3.0578E7, rho_outlet_sleeve = 2947.9, Cp_inlet_sleeve = 847.62, k_inlet_sleeve = 150.66, sigma_inlet_sleeve = 4.628E7, rho_inlet_sleeve = 2428.7) (degC), Point: 102Temperature (Cp_Al = 654.77, k_Al = 118.4, sigma_Al = 5.1977E7, rho_Al = 3124.7, Cp_inlet = 974.01, k_inlet = 187.05, sigma_inlet = 2.7947E7, rho_inlet = 1786.8, Cp_outlet = 898.49, k_outlet = 111.01, sigma_outlet = 4.7927E7, rho_outlet = 2456.8, Cp_outlet_sleeve = 610.3, k_outlet_sleeve = 174.07, sigma_outlet_sleeve = 3.0578E7, rho_outlet_sleeve = 2947.9, Cp_inlet_sleeve = 847.62, k_inlet_sleeve = 150.66, sigma_inlet_sleeve = 4.628E7, rho_inlet_sleeve = 2428.7) (degC), Point: 127Temperature (Cp_Al = 654.77, k_Al = 118.4, sigma_Al = 5.1977E7, rho_Al = 3124.7, Cp_inlet = 974.01, k_inlet = 187.05, sigma_inlet = 2.7947E7, rho_inlet = 1786.8, Cp_outlet = 898.49, k_outlet = 111.01, sigma_outlet = 4.7927E7, rho_outlet = 2456.8, Cp_outlet_sleeve = 610.3, k_outlet_sleeve = 174.07, sigma_outlet_sleeve = 3.0578E7, rho_outlet_sleeve = 2947.9, Cp_inlet_sleeve = 847.62, k_inlet_sleeve = 150.66, sigma_inlet_sleeve = 4.628E7, rho_inlet_sleeve = 2428.7) (degC), Point: 128Temperature (Cp_Al = 654.77, k_Al = 118.4, sigma_Al = 5.1977E7, rho_Al = 3124.7, Cp_inlet = 974.01, k_inlet = 187.05, sigma_inlet = 2.7947E7, rho_inlet = 1786.8, Cp_outlet = 898.49, k_outlet = 111.01, sigma_outlet = 4.7927E7, rho_outlet = 2456.8, Cp_outlet_sleeve = 610.3, k_outlet_sleeve = 174.07, sigma_outlet_sleeve = 3.0578E7, rho_outlet_sleeve = 2947.9, Cp_inlet_sleeve = 847.62, k_inlet_sleeve = 150.66, sigma_inlet_sleeve = 4.628E7, rho_inlet_sleeve = 2428.7) (degC), Point: 134Temperature (Cp_Al = 654.77, k_Al = 118.4, sigma_Al = 5.1977E7, rho_Al = 3124.7, Cp_inlet = 974.01, k_inlet = 187.05, sigma_inlet = 2.7947E7, rho_inlet = 1786.8, Cp_outlet = 898.49, k_outlet = 111.01, sigma_outlet = 4.7927E7, rho_outlet = 2456.8, Cp_outlet_sleeve = 610.3, k_outlet_sleeve = 174.07, sigma_outlet_sleeve = 3.0578E7, rho_outlet_sleeve = 2947.9, Cp_inlet_sleeve = 847.62, k_inlet_sleeve = 150.66, sigma_inlet_sleeve = 4.628E7, rho_inlet_sleeve = 2428.7) (degC), Point: 138Temperature (Cp_Al = 654.77, k_Al = 118.4, sigma_Al = 5.1977E7, rho_Al = 3124.7, Cp_inlet = 974.01, k_inlet = 187.05, sigma_inlet = 2.7947E7, rho_inlet = 1786.8, Cp_outlet = 898.49, k_outlet = 111.01, sigma_outlet = 4.7927E7, rho_outlet = 2456.8, Cp_outlet_sleeve = 610.3, k_outlet_sleeve = 174.07, sigma_outlet_sleeve = 3.0578E7, rho_outlet_sleeve = 2947.9, Cp_inlet_sleeve = 847.62, k_inlet_sleeve = 150.66, sigma_inlet_sleeve = 4.628E7, rho_inlet_sleeve = 2428.7) (degC), Point: 151Temperature (Cp_Al = 654.77, k_Al = 118.4, sigma_Al = 5.1977E7, rho_Al = 3124.7, Cp_inlet = 974.01, k_inlet = 187.05, sigma_inlet = 2.7947E7, rho_inlet = 1786.8, Cp_outlet = 898.49, k_outlet = 111.01, sigma_outlet = 4.7927E7, rho_outlet = 2456.8, Cp_outlet_sleeve = 610.3, k_outlet_sleeve = 174.07, sigma_outlet_sleeve = 3.0578E7, rho_outlet_sleeve = 2947.9, Cp_inlet_sleeve = 847.62, k_inlet_sleeve = 150.66, sigma_inlet_sleeve = 4.628E7, rho_inlet_sleeve = 2428.7) (degC), Point: 154Temperature (Cp_Al = 654.77, k_Al = 118.4, sigma_Al = 5.1977E7, rho_Al = 3124.7, Cp_inlet = 974.01, k_inlet = 187.05, sigma_inlet = 2.7947E7, rho_inlet = 1786.8, Cp_outlet = 898.49, k_outlet = 111.01, sigma_outlet = 4.7927E7, rho_outlet = 2456.8, Cp_outlet_sleeve = 610.3, k_outlet_sleeve = 174.07, sigma_outlet_sleeve = 3.0578E7, rho_outlet_sleeve = 2947.9, Cp_inlet_sleeve = 847.62, k_inlet_sleeve = 150.66, sigma_inlet_sleeve = 4.628E7, rho_inlet_sleeve = 2428.7) (degC), Point: 159Temperature (Cp_Al = 654.77, k_Al = 118.4, sigma_Al = 5.1977E7, rho_Al = 3124.7, Cp_inlet = 974.01, k_inlet = 187.05, sigma_inlet = 2.7947E7, rho_inlet = 1786.8, Cp_outlet = 898.49, k_outlet = 111.01, sigma_outlet = 4.7927E7, rho_outlet = 2456.8, Cp_outlet_sleeve = 610.3, k_outlet_sleeve = 174.07, sigma_outlet_sleeve = 3.0578E7, rho_outlet_sleeve = 2947.9, Cp_inlet_sleeve = 847.62, k_inlet_sleeve = 150.66, sigma_inlet_sleeve = 4.628E7, rho_inlet_sleeve = 2428.7) (degC), Point: 163Temperature (Cp_Al = 654.77, k_Al = 118.4, sigma_Al = 5.1977E7, rho_Al = 3124.7, Cp_inlet = 974.01, k_inlet = 187.05, sigma_inlet = 2.7947E7, rho_inlet = 1786.8, Cp_outlet = 898.49, k_outlet = 111.01, sigma_outlet = 4.7927E7, rho_outlet = 2456.8, Cp_outlet_sleeve = 610.3, k_outlet_sleeve = 174.07, sigma_outlet_sleeve = 3.0578E7, rho_outlet_sleeve = 2947.9, Cp_inlet_sleeve = 847.62, k_inlet_sleeve = 150.66, sigma_inlet_sleeve = 4.628E7, rho_inlet_sleeve = 2428.7) (degC), Point: 167Temperature (Cp_Al = 654.77, k_Al = 118.4, sigma_Al = 5.1977E7, rho_Al = 3124.7, Cp_inlet = 974.01, k_inlet = 187.05, sigma_inlet = 2.7947E7, rho_inlet = 1786.8, Cp_outlet = 898.49, k_outlet = 111.01, sigma_outlet = 4.7927E7, rho_outlet = 2456.8, Cp_outlet_sleeve = 610.3, k_outlet_sleeve = 174.07, sigma_outlet_sleeve = 3.0578E7, rho_outlet_sleeve = 2947.9, Cp_inlet_sleeve = 847.62, k_inlet_sleeve = 150.66, sigma_inlet_sleeve = 4.628E7, rho_inlet_sleeve = 2428.7) (degC), Point: 168Temperature (Cp_Al = 654.77, k_Al = 118.4, sigma_Al = 5.1977E7, rho_Al = 3124.7, Cp_inlet = 974.01, k_inlet = 187.05, sigma_inlet = 2.7947E7, rho_inlet = 1786.8, Cp_outlet = 898.49, k_outlet = 111.01, sigma_outlet = 4.7927E7, rho_outlet = 2456.8, Cp_outlet_sleeve = 610.3, k_outlet_sleeve = 174.07, sigma_outlet_sleeve = 3.0578E7, rho_outlet_sleeve = 2947.9, Cp_inlet_sleeve = 847.62, k_inlet_sleeve = 150.66, sigma_inlet_sleeve = 4.628E7, rho_inlet_sleeve = 2428.7) (degC), Point: 172Temperature (Cp_Al = 654.77, k_Al = 118.4, sigma_Al = 5.1977E7, rho_Al = 3124.7, Cp_inlet = 974.01, k_inlet = 187.05, sigma_inlet = 2.7947E7, rho_inlet = 1786.8, Cp_outlet = 898.49, k_outlet = 111.01, sigma_outlet = 4.7927E7, rho_outlet = 2456.8, Cp_outlet_sleeve = 610.3, k_outlet_sleeve = 174.07, sigma_outlet_sleeve = 3.0578E7, rho_outlet_sleeve = 2947.9, Cp_inlet_sleeve = 847.62, k_inlet_sleeve = 150.66, sigma_inlet_sleeve = 4.628E7, rho_inlet_sleeve = 2428.7) (degC), Point: 181Temperature (Cp_Al = 654.77, k_Al = 118.4, sigma_Al = 5.1977E7, rho_Al = 3124.7, Cp_inlet = 974.01, k_inlet = 187.05, sigma_inlet = 2.7947E7, rho_inlet = 1786.8, Cp_outlet = 898.49, k_outlet = 111.01, sigma_outlet = 4.7927E7, rho_outlet = 2456.8, Cp_outlet_sleeve = 610.3, k_outlet_sleeve = 174.07, sigma_outlet_sleeve = 3.0578E7, rho_outlet_sleeve = 2947.9, Cp_inlet_sleeve = 847.62, k_inlet_sleeve = 150.66, sigma_inlet_sleeve = 4.628E7, rho_inlet_sleeve = 2428.7) (degC), Point: 201Temperature (Cp_Al = 654.77, k_Al = 118.4, sigma_Al = 5.1977E7, rho_Al = 3124.7, Cp_inlet = 974.01, k_inlet = 187.05, sigma_inlet = 2.7947E7, rho_inlet = 1786.8, Cp_outlet = 898.49, k_outlet = 111.01, sigma_outlet = 4.7927E7, rho_outlet = 2456.8, Cp_outlet_sleeve = 610.3, k_outlet_sleeve = 174.07, sigma_outlet_sleeve = 3.0578E7, rho_outlet_sleeve = 2947.9, Cp_inlet_sleeve = 847.62, k_inlet_sleeve = 150.66, sigma_inlet_sleeve = 4.628E7, rho_inlet_sleeve = 2428.7) (degC), Point: 210Temperature (Cp_Al = 654.77, k_Al = 118.4, sigma_Al = 5.1977E7, rho_Al = 3124.7, Cp_inlet = 974.01, k_inlet = 187.05, sigma_inlet = 2.7947E7, rho_inlet = 1786.8, Cp_outlet = 898.49, k_outlet = 111.01, sigma_outlet = 4.7927E7, rho_outlet = 2456.8, Cp_outlet_sleeve = 610.3, k_outlet_sleeve = 174.07, sigma_outlet_sleeve = 3.0578E7, rho_outlet_sleeve = 2947.9, Cp_inlet_sleeve = 847.62, k_inlet_sleeve = 150.66, sigma_inlet_sleeve = 4.628E7, rho_inlet_sleeve = 2428.7) (degC), Point: 213Temperature (Cp_Al = 654.77, k_Al = 118.4, sigma_Al = 5.1977E7, rho_Al = 3124.7, Cp_inlet = 974.01, k_inlet = 187.05, sigma_inlet = 2.7947E7, rho_inlet = 1786.8, Cp_outlet = 898.49, k_outlet = 111.01, sigma_outlet = 4.7927E7, rho_outlet = 2456.8, Cp_outlet_sleeve = 610.3, k_outlet_sleeve = 174.07, sigma_outlet_sleeve = 3.0578E7, rho_outlet_sleeve = 2947.9, Cp_inlet_sleeve = 847.62, k_inlet_sleeve = 150.66, sigma_inlet_sleeve = 4.628E7, rho_inlet_sleeve = 2428.7) (degC), Point: 215Temperature (Cp_Al = 654.77, k_Al = 118.4, sigma_Al = 5.1977E7, rho_Al = 3124.7, Cp_inlet = 974.01, k_inlet = 187.05, sigma_inlet = 2.7947E7, rho_inlet = 1786.8, Cp_outlet = 898.49, k_outlet = 111.01, sigma_outlet = 4.7927E7, rho_outlet = 2456.8, Cp_outlet_sleeve = 610.3, k_outlet_sleeve = 174.07, sigma_outlet_sleeve = 3.0578E7, rho_outlet_sleeve = 2947.9, Cp_inlet_sleeve = 847.62, k_inlet_sleeve = 150.66, sigma_inlet_sleeve = 4.628E7, rho_inlet_sleeve = 2428.7) (degC), Point: 229Temperature (Cp_Al = 654.77, k_Al = 118.4, sigma_Al = 5.1977E7, rho_Al = 3124.7, Cp_inlet = 974.01, k_inlet = 187.05, sigma_inlet = 2.7947E7, rho_inlet = 1786.8, Cp_outlet = 898.49, k_outlet = 111.01, sigma_outlet = 4.7927E7, rho_outlet = 2456.8, Cp_outlet_sleeve = 610.3, k_outlet_sleeve = 174.07, sigma_outlet_sleeve = 3.0578E7, rho_outlet_sleeve = 2947.9, Cp_inlet_sleeve = 847.62, k_inlet_sleeve = 150.66, sigma_inlet_sleeve = 4.628E7, rho_inlet_sleeve = 2428.7) (degC), Point: 232Temperature (Cp_Al = 654.77, k_Al = 118.4, sigma_Al = 5.1977E7, rho_Al = 3124.7, Cp_inlet = 974.01, k_inlet = 187.05, sigma_inlet = 2.7947E7, rho_inlet = 1786.8, Cp_outlet = 898.49, k_outlet = 111.01, sigma_outlet = 4.7927E7, rho_outlet = 2456.8, Cp_outlet_sleeve = 610.3, k_outlet_sleeve = 174.07, sigma_outlet_sleeve = 3.0578E7, rho_outlet_sleeve = 2947.9, Cp_inlet_sleeve = 847.62, k_inlet_sleeve = 150.66, sigma_inlet_sleeve = 4.628E7, rho_inlet_sleeve = 2428.7) (degC), Point: 239Temperature (Cp_Al = 654.77, k_Al = 118.4, sigma_Al = 5.1977E7, rho_Al = 3124.7, Cp_inlet = 974.01, k_inlet = 187.05, sigma_inlet = 2.7947E7, rho_inlet = 1786.8, Cp_outlet = 898.49, k_outlet = 111.01, sigma_outlet = 4.7927E7, rho_outlet = 2456.8, Cp_outlet_sleeve = 610.3, k_outlet_sleeve = 174.07, sigma_outlet_sleeve = 3.0578E7, rho_outlet_sleeve = 2947.9, Cp_inlet_sleeve = 847.62, k_inlet_sleeve = 150.66, sigma_inlet_sleeve = 4.628E7, rho_inlet_sleeve = 2428.7) (degC), Point: 252Temperature (Cp_Al = 654.77, k_Al = 118.4, sigma_Al = 5.1977E7, rho_Al = 3124.7, Cp_inlet = 974.01, k_inlet = 187.05, sigma_inlet = 2.7947E7, rho_inlet = 1786.8, Cp_outlet = 898.49, k_outlet = 111.01, sigma_outlet = 4.7927E7, rho_outlet = 2456.8, Cp_outlet_sleeve = 610.3, k_outlet_sleeve = 174.07, sigma_outlet_sleeve = 3.0578E7, rho_outlet_sleeve = 2947.9, Cp_inlet_sleeve = 847.62, k_inlet_sleeve = 150.66, sigma_inlet_sleeve = 4.628E7, rho_inlet_sleeve = 2428.7) (degC), Point: 261Temperature (Cp_Al = 654.77, k_Al = 118.4, sigma_Al = 5.1977E7, rho_Al = 3124.7, Cp_inlet = 974.01, k_inlet = 187.05, sigma_inlet = 2.7947E7, rho_inlet = 1786.8, Cp_outlet = 898.49, k_outlet = 111.01, sigma_outlet = 4.7927E7, rho_outlet = 2456.8, Cp_outlet_sleeve = 610.3, k_outlet_sleeve = 174.07, sigma_outlet_sleeve = 3.0578E7, rho_outlet_sleeve = 2947.9, Cp_inlet_sleeve = 847.62, k_inlet_sleeve = 150.66, sigma_inlet_sleeve = 4.628E7, rho_inlet_sleeve = 2428.7) (degC), Point: 270Temperature (Cp_Al = 654.77, k_Al = 118.4, sigma_Al = 5.1977E7, rho_Al = 3124.7, Cp_inlet = 974.01, k_inlet = 187.05, sigma_inlet = 2.7947E7, rho_inlet = 1786.8, Cp_outlet = 898.49, k_outlet = 111.01, sigma_outlet = 4.7927E7, rho_outlet = 2456.8, Cp_outlet_sleeve = 610.3, k_outlet_sleeve = 174.07, sigma_outlet_sleeve = 3.0578E7, rho_outlet_sleeve = 2947.9, Cp_inlet_sleeve = 847.62, k_inlet_sleeve = 150.66, sigma_inlet_sleeve = 4.628E7, rho_inlet_sleeve = 2428.7) (degC), Point: 273Temperature (Cp_Al = 654.77, k_Al = 118.4, sigma_Al = 5.1977E7, rho_Al = 3124.7, Cp_inlet = 974.01, k_inlet = 187.05, sigma_inlet = 2.7947E7, rho_inlet = 1786.8, Cp_outlet = 898.49, k_outlet = 111.01, sigma_outlet = 4.7927E7, rho_outlet = 2456.8, Cp_outlet_sleeve = 610.3, k_outlet_sleeve = 174.07, sigma_outlet_sleeve = 3.0578E7, rho_outlet_sleeve = 2947.9, Cp_inlet_sleeve = 847.62, k_inlet_sleeve = 150.66, sigma_inlet_sleeve = 4.628E7, rho_inlet_sleeve = 2428.7) (degC), Point: 275
0                        21.692779142899496       21.016069311096658       21.13107350671561        21.008206963443456       21.01548641293016        21.108978742090756       21.01022926989549        21.032351913035257       21.001581889364047       21.02484388606723        21.00141563673344        21.00071636051291        21.009525106603803       21.00011903799657        21.00957762388009        21.022963745724667       21.000056071775816       21.011540754980444       21.000719534816255       21.00030427342398        21.001793609324125       21.000193996291273       21.000293244509123       21.010211891464508       21.119510751557982       21.014830138534933       21.66942806740775        21.008043881267554       21.14380055736882        21.019084204821695       21.770417305096487
3                        326.71900213072627       295.6239765095828        305.33553457067364       300.80625032566365       293.03001611724903       307.0144115321573        305.7164483095163        292.9410663529786        287.41056957287606       299.8906696305355        302.4422424650717        295.0327585898358        291.8197315372174        277.7330353454571        283.12799824414594       258.6485503994222        254.27286638493          262.1894638784066        263.22679445000335       256.8503818054936        256.5560093556645        251.3422319863082        254.04573846952155       307.5021395955887        309.25651369774494       294.4738906022029        330.33656082486596       302.4592421558697        307.11876804802455       294.3448334621678        330.1678241577989
6                        456.8861281462923        424.19974876819947       438.39631221975776       434.84461302883983       423.3620136600464        442.0266658944756        441.6840425533235        425.0333064937447        417.5951646927084        434.81181287154266       438.3258128131906        430.8925485643932        426.7187964990153        407.8829213203925        415.17718589038793       387.24006372133476       381.18625215842076       393.81600358142          395.8773543528838        389.5650114422567        388.31992237916506       378.6083790221069        382.92255834847776       443.2853472789807        444.0554967105887        424.47437858963644       462.26488213238406       433.6371703193863        437.2985293659475        419.7554050334462        457.3037876719318
9                        532.9689399562185        499.37988177225316       516.5264677434187        513.8343337024859        496.326175654316         518.0268542635426        518.5122470760307        498.94760357831296       490.4646794943377        510.7571260930624        515.1042406658822        507.6658188112963        502.65880258960885       480.74136857956967       489.07168839255655       462.2281154296837        455.2203074617488        470.9322472392987        473.880547533121         467.73241081889194       465.63864490465073       452.9545485446273        458.1877305360939        520.0158370668887        519.9334694153181        497.23658106790526       536.0829346204878        510.7867093058263        513.5709024149377        492.8912190837033        531.4281509428012
12                       585.8782755610868        551.6907711444752        570.9153517057944        568.885330080175         546.7794014527302        570.6472849183865        571.7831173101307        550.0288777887426        540.8556830248208        563.3424198318827        568.3435112171578        560.9063369089238        555.2447866638162        531.1287112974692        540.1427281032176        514.4726936860427        506.83206794625096       524.7136394226075        528.3447080490064        522.2775222891102        519.5220382982973        504.7317729997494        510.576436790202         573.2303947480593        572.4788414494082        547.5605404808286        587.1039672975838        564.7235740697525        566.8246661440303        543.9262339579986        583.120933597927
15                       625.1527389549216        590.5506933757407        611.2875035198402        609.7709130165039        584.6414140094172        610.1510047409421        611.8132552927095        588.3404555671019        578.6763159356996        602.8235183662812        608.3534748634619        600.9196462464971        594.7284690987389        568.9481528393858        578.4480610625463        553.3286797987791        545.2502875489525        564.707981333602         568.8679684092723        562.8669279917391        559.5920851877879        543.2578350675911        549.528126466988         613.2281730541098        611.9355565304038        585.3377409089398        625.3763354975881        604.9371897337579        606.5028194425585        581.9817665388978        621.6335519460287
18                       656.2927197937634        621.3889321947454        643.2718679176395        642.1629786556604        615.2844191509301        642.1059285727988        644.2072173002189        619.3296597525224        609.2910334487366        634.7635271492074        640.7342393960981        633.3041103163445        626.6713483398207        599.5622599365315        609.432660529318         584.1948056677571        575.7984778010259        596.4483986098776        601.0280886596156        595.0882158170617        591.3966279975562        573.8839943146951        580.4655573646609        645.6033549047712        643.8599470944771        615.9229042876242        656.3386536705917        636.9178351467489        638.0541606167452        612.2977130657365        652.2829333754397
21                       682.6044072687166        647.4677365130491        670.2620161978781        669.4876804726209        641.7158834579001        669.6277525829639        672.1023982480372        646.0436888435303        635.7024334617906        662.2751522478418        668.6204545290265        661.1936815739706        654.1855180283538        625.9729636270113        636.1427513572252        610.318724014574         601.6777507438445        623.2736893573688        628.1975596467738        622.3136964383929        618.277460200665         599.8229103257307        606.6454866757807        673.4873096537086        671.3609072585617        642.3130302556253        683.0331413154486        663.9821785034882        664.7637241059045        638.0222031717138        678.2647623422167
24                       705.8841296404426        670.5590177373409        694.1070446818425        693.6154118247464        665.4274849232592        694.2615584479886        697.0556969207073        669.9924886481207        659.3993953898064        686.901783791796         693.5674807119876        686.1435672132019        678.8142588099115        649.6690749403135        660.0880204716153        633.4650096022787        624.6267838401436        647.003337326423         652.2177982129895        646.3843377259092        642.055367467031         622.8192961464348        629.8371619851691        698.4337972424015        695.9799133951545        665.9940924339321        706.9671799557088        687.9411623314427        688.421638008782         660.8648931059432        701.3151839281223
27                       727.1245881388298        691.6419874674104        715.8304831939134        715.582729388121         687.1824103525971        716.799302932965         719.8663952780503        691.9480812775905        681.143428506254         709.4343827690326        716.3737031391923        708.9522050193283        701.3486050804235        671.4122301336594        682.0404926749233        654.6081952265774        645.605739744952         668.6439875802776        674.1088672445782        668.320629761623         663.7383544233884        643.8372201359995        651.0182757989775        721.2404178238909        718.5069361367727        687.7260244475915        728.9114122904622        709.7981981492406        710.018439288741         681.7697770465527        722.3929640885588
