% Model:              brazing.mph
% Version:            COMSOL 5.3.0.223
% Date:               Oct 24 2018, 03:58
% Table:              Table 3 - 
% Time (s)               Temperature (Cp_Al = 804.93, k_Al = 106.8, sigma_Al = 1.4257E7, rho_Al = 2720.7, Cp_inlet = 1203.4, k_inlet = 116.96, sigma_inlet = 3.6823E7, rho_inlet = 1742.4, Cp_outlet = 527.44, k_outlet = 145.15, sigma_outlet = 2.1338E7, rho_outlet = 3207.5, Cp_outlet_sleeve = 1140.7, k_outlet_sleeve = 197.3, sigma_outlet_sleeve = 3.2896E7, rho_outlet_sleeve = 622.77, Cp_inlet_sleeve = 941.34, k_inlet_sleeve = 220.91, sigma_inlet_sleeve = 3.3325E7, rho_inlet_sleeve = 1989.3) (degC), Point: 55Temperature (Cp_Al = 804.93, k_Al = 106.8, sigma_Al = 1.4257E7, rho_Al = 2720.7, Cp_inlet = 1203.4, k_inlet = 116.96, sigma_inlet = 3.6823E7, rho_inlet = 1742.4, Cp_outlet = 527.44, k_outlet = 145.15, sigma_outlet = 2.1338E7, rho_outlet = 3207.5, Cp_outlet_sleeve = 1140.7, k_outlet_sleeve = 197.3, sigma_outlet_sleeve = 3.2896E7, rho_outlet_sleeve = 622.77, Cp_inlet_sleeve = 941.34, k_inlet_sleeve = 220.91, sigma_inlet_sleeve = 3.3325E7, rho_inlet_sleeve = 1989.3) (degC), Point: 56Temperature (Cp_Al = 804.93, k_Al = 106.8, sigma_Al = 1.4257E7, rho_Al = 2720.7, Cp_inlet = 1203.4, k_inlet = 116.96, sigma_inlet = 3.6823E7, rho_inlet = 1742.4, Cp_outlet = 527.44, k_outlet = 145.15, sigma_outlet = 2.1338E7, rho_outlet = 3207.5, Cp_outlet_sleeve = 1140.7, k_outlet_sleeve = 197.3, sigma_outlet_sleeve = 3.2896E7, rho_outlet_sleeve = 622.77, Cp_inlet_sleeve = 941.34, k_inlet_sleeve = 220.91, sigma_inlet_sleeve = 3.3325E7, rho_inlet_sleeve = 1989.3) (degC), Point: 60Temperature (Cp_Al = 804.93, k_Al = 106.8, sigma_Al = 1.4257E7, rho_Al = 2720.7, Cp_inlet = 1203.4, k_inlet = 116.96, sigma_inlet = 3.6823E7, rho_inlet = 1742.4, Cp_outlet = 527.44, k_outlet = 145.15, sigma_outlet = 2.1338E7, rho_outlet = 3207.5, Cp_outlet_sleeve = 1140.7, k_outlet_sleeve = 197.3, sigma_outlet_sleeve = 3.2896E7, rho_outlet_sleeve = 622.77, Cp_inlet_sleeve = 941.34, k_inlet_sleeve = 220.91, sigma_inlet_sleeve = 3.3325E7, rho_inlet_sleeve = 1989.3) (degC), Point: 69Temperature (Cp_Al = 804.93, k_Al = 106.8, sigma_Al = 1.4257E7, rho_Al = 2720.7, Cp_inlet = 1203.4, k_inlet = 116.96, sigma_inlet = 3.6823E7, rho_inlet = 1742.4, Cp_outlet = 527.44, k_outlet = 145.15, sigma_outlet = 2.1338E7, rho_outlet = 3207.5, Cp_outlet_sleeve = 1140.7, k_outlet_sleeve = 197.3, sigma_outlet_sleeve = 3.2896E7, rho_outlet_sleeve = 622.77, Cp_inlet_sleeve = 941.34, k_inlet_sleeve = 220.91, sigma_inlet_sleeve = 3.3325E7, rho_inlet_sleeve = 1989.3) (degC), Point: 90Temperature (Cp_Al = 804.93, k_Al = 106.8, sigma_Al = 1.4257E7, rho_Al = 2720.7, Cp_inlet = 1203.4, k_inlet = 116.96, sigma_inlet = 3.6823E7, rho_inlet = 1742.4, Cp_outlet = 527.44, k_outlet = 145.15, sigma_outlet = 2.1338E7, rho_outlet = 3207.5, Cp_outlet_sleeve = 1140.7, k_outlet_sleeve = 197.3, sigma_outlet_sleeve = 3.2896E7, rho_outlet_sleeve = 622.77, Cp_inlet_sleeve = 941.34, k_inlet_sleeve = 220.91, sigma_inlet_sleeve = 3.3325E7, rho_inlet_sleeve = 1989.3) (degC), Point: 98Temperature (Cp_Al = 804.93, k_Al = 106.8, sigma_Al = 1.4257E7, rho_Al = 2720.7, Cp_inlet = 1203.4, k_inlet = 116.96, sigma_inlet = 3.6823E7, rho_inlet = 1742.4, Cp_outlet = 527.44, k_outlet = 145.15, sigma_outlet = 2.1338E7, rho_outlet = 3207.5, Cp_outlet_sleeve = 1140.7, k_outlet_sleeve = 197.3, sigma_outlet_sleeve = 3.2896E7, rho_outlet_sleeve = 622.77, Cp_inlet_sleeve = 941.34, k_inlet_sleeve = 220.91, sigma_inlet_sleeve = 3.3325E7, rho_inlet_sleeve = 1989.3) (degC), Point: 102Temperature (Cp_Al = 804.93, k_Al = 106.8, sigma_Al = 1.4257E7, rho_Al = 2720.7, Cp_inlet = 1203.4, k_inlet = 116.96, sigma_inlet = 3.6823E7, rho_inlet = 1742.4, Cp_outlet = 527.44, k_outlet = 145.15, sigma_outlet = 2.1338E7, rho_outlet = 3207.5, Cp_outlet_sleeve = 1140.7, k_outlet_sleeve = 197.3, sigma_outlet_sleeve = 3.2896E7, rho_outlet_sleeve = 622.77, Cp_inlet_sleeve = 941.34, k_inlet_sleeve = 220.91, sigma_inlet_sleeve = 3.3325E7, rho_inlet_sleeve = 1989.3) (degC), Point: 127Temperature (Cp_Al = 804.93, k_Al = 106.8, sigma_Al = 1.4257E7, rho_Al = 2720.7, Cp_inlet = 1203.4, k_inlet = 116.96, sigma_inlet = 3.6823E7, rho_inlet = 1742.4, Cp_outlet = 527.44, k_outlet = 145.15, sigma_outlet = 2.1338E7, rho_outlet = 3207.5, Cp_outlet_sleeve = 1140.7, k_outlet_sleeve = 197.3, sigma_outlet_sleeve = 3.2896E7, rho_outlet_sleeve = 622.77, Cp_inlet_sleeve = 941.34, k_inlet_sleeve = 220.91, sigma_inlet_sleeve = 3.3325E7, rho_inlet_sleeve = 1989.3) (degC), Point: 128Temperature (Cp_Al = 804.93, k_Al = 106.8, sigma_Al = 1.4257E7, rho_Al = 2720.7, Cp_inlet = 1203.4, k_inlet = 116.96, sigma_inlet = 3.6823E7, rho_inlet = 1742.4, Cp_outlet = 527.44, k_outlet = 145.15, sigma_outlet = 2.1338E7, rho_outlet = 3207.5, Cp_outlet_sleeve = 1140.7, k_outlet_sleeve = 197.3, sigma_outlet_sleeve = 3.2896E7, rho_outlet_sleeve = 622.77, Cp_inlet_sleeve = 941.34, k_inlet_sleeve = 220.91, sigma_inlet_sleeve = 3.3325E7, rho_inlet_sleeve = 1989.3) (degC), Point: 134Temperature (Cp_Al = 804.93, k_Al = 106.8, sigma_Al = 1.4257E7, rho_Al = 2720.7, Cp_inlet = 1203.4, k_inlet = 116.96, sigma_inlet = 3.6823E7, rho_inlet = 1742.4, Cp_outlet = 527.44, k_outlet = 145.15, sigma_outlet = 2.1338E7, rho_outlet = 3207.5, Cp_outlet_sleeve = 1140.7, k_outlet_sleeve = 197.3, sigma_outlet_sleeve = 3.2896E7, rho_outlet_sleeve = 622.77, Cp_inlet_sleeve = 941.34, k_inlet_sleeve = 220.91, sigma_inlet_sleeve = 3.3325E7, rho_inlet_sleeve = 1989.3) (degC), Point: 138Temperature (Cp_Al = 804.93, k_Al = 106.8, sigma_Al = 1.4257E7, rho_Al = 2720.7, Cp_inlet = 1203.4, k_inlet = 116.96, sigma_inlet = 3.6823E7, rho_inlet = 1742.4, Cp_outlet = 527.44, k_outlet = 145.15, sigma_outlet = 2.1338E7, rho_outlet = 3207.5, Cp_outlet_sleeve = 1140.7, k_outlet_sleeve = 197.3, sigma_outlet_sleeve = 3.2896E7, rho_outlet_sleeve = 622.77, Cp_inlet_sleeve = 941.34, k_inlet_sleeve = 220.91, sigma_inlet_sleeve = 3.3325E7, rho_inlet_sleeve = 1989.3) (degC), Point: 151Temperature (Cp_Al = 804.93, k_Al = 106.8, sigma_Al = 1.4257E7, rho_Al = 2720.7, Cp_inlet = 1203.4, k_inlet = 116.96, sigma_inlet = 3.6823E7, rho_inlet = 1742.4, Cp_outlet = 527.44, k_outlet = 145.15, sigma_outlet = 2.1338E7, rho_outlet = 3207.5, Cp_outlet_sleeve = 1140.7, k_outlet_sleeve = 197.3, sigma_outlet_sleeve = 3.2896E7, rho_outlet_sleeve = 622.77, Cp_inlet_sleeve = 941.34, k_inlet_sleeve = 220.91, sigma_inlet_sleeve = 3.3325E7, rho_inlet_sleeve = 1989.3) (degC), Point: 154Temperature (Cp_Al = 804.93, k_Al = 106.8, sigma_Al = 1.4257E7, rho_Al = 2720.7, Cp_inlet = 1203.4, k_inlet = 116.96, sigma_inlet = 3.6823E7, rho_inlet = 1742.4, Cp_outlet = 527.44, k_outlet = 145.15, sigma_outlet = 2.1338E7, rho_outlet = 3207.5, Cp_outlet_sleeve = 1140.7, k_outlet_sleeve = 197.3, sigma_outlet_sleeve = 3.2896E7, rho_outlet_sleeve = 622.77, Cp_inlet_sleeve = 941.34, k_inlet_sleeve = 220.91, sigma_inlet_sleeve = 3.3325E7, rho_inlet_sleeve = 1989.3) (degC), Point: 159Temperature (Cp_Al = 804.93, k_Al = 106.8, sigma_Al = 1.4257E7, rho_Al = 2720.7, Cp_inlet = 1203.4, k_inlet = 116.96, sigma_inlet = 3.6823E7, rho_inlet = 1742.4, Cp_outlet = 527.44, k_outlet = 145.15, sigma_outlet = 2.1338E7, rho_outlet = 3207.5, Cp_outlet_sleeve = 1140.7, k_outlet_sleeve = 197.3, sigma_outlet_sleeve = 3.2896E7, rho_outlet_sleeve = 622.77, Cp_inlet_sleeve = 941.34, k_inlet_sleeve = 220.91, sigma_inlet_sleeve = 3.3325E7, rho_inlet_sleeve = 1989.3) (degC), Point: 163Temperature (Cp_Al = 804.93, k_Al = 106.8, sigma_Al = 1.4257E7, rho_Al = 2720.7, Cp_inlet = 1203.4, k_inlet = 116.96, sigma_inlet = 3.6823E7, rho_inlet = 1742.4, Cp_outlet = 527.44, k_outlet = 145.15, sigma_outlet = 2.1338E7, rho_outlet = 3207.5, Cp_outlet_sleeve = 1140.7, k_outlet_sleeve = 197.3, sigma_outlet_sleeve = 3.2896E7, rho_outlet_sleeve = 622.77, Cp_inlet_sleeve = 941.34, k_inlet_sleeve = 220.91, sigma_inlet_sleeve = 3.3325E7, rho_inlet_sleeve = 1989.3) (degC), Point: 167Temperature (Cp_Al = 804.93, k_Al = 106.8, sigma_Al = 1.4257E7, rho_Al = 2720.7, Cp_inlet = 1203.4, k_inlet = 116.96, sigma_inlet = 3.6823E7, rho_inlet = 1742.4, Cp_outlet = 527.44, k_outlet = 145.15, sigma_outlet = 2.1338E7, rho_outlet = 3207.5, Cp_outlet_sleeve = 1140.7, k_outlet_sleeve = 197.3, sigma_outlet_sleeve = 3.2896E7, rho_outlet_sleeve = 622.77, Cp_inlet_sleeve = 941.34, k_inlet_sleeve = 220.91, sigma_inlet_sleeve = 3.3325E7, rho_inlet_sleeve = 1989.3) (degC), Point: 168Temperature (Cp_Al = 804.93, k_Al = 106.8, sigma_Al = 1.4257E7, rho_Al = 2720.7, Cp_inlet = 1203.4, k_inlet = 116.96, sigma_inlet = 3.6823E7, rho_inlet = 1742.4, Cp_outlet = 527.44, k_outlet = 145.15, sigma_outlet = 2.1338E7, rho_outlet = 3207.5, Cp_outlet_sleeve = 1140.7, k_outlet_sleeve = 197.3, sigma_outlet_sleeve = 3.2896E7, rho_outlet_sleeve = 622.77, Cp_inlet_sleeve = 941.34, k_inlet_sleeve = 220.91, sigma_inlet_sleeve = 3.3325E7, rho_inlet_sleeve = 1989.3) (degC), Point: 172Temperature (Cp_Al = 804.93, k_Al = 106.8, sigma_Al = 1.4257E7, rho_Al = 2720.7, Cp_inlet = 1203.4, k_inlet = 116.96, sigma_inlet = 3.6823E7, rho_inlet = 1742.4, Cp_outlet = 527.44, k_outlet = 145.15, sigma_outlet = 2.1338E7, rho_outlet = 3207.5, Cp_outlet_sleeve = 1140.7, k_outlet_sleeve = 197.3, sigma_outlet_sleeve = 3.2896E7, rho_outlet_sleeve = 622.77, Cp_inlet_sleeve = 941.34, k_inlet_sleeve = 220.91, sigma_inlet_sleeve = 3.3325E7, rho_inlet_sleeve = 1989.3) (degC), Point: 181Temperature (Cp_Al = 804.93, k_Al = 106.8, sigma_Al = 1.4257E7, rho_Al = 2720.7, Cp_inlet = 1203.4, k_inlet = 116.96, sigma_inlet = 3.6823E7, rho_inlet = 1742.4, Cp_outlet = 527.44, k_outlet = 145.15, sigma_outlet = 2.1338E7, rho_outlet = 3207.5, Cp_outlet_sleeve = 1140.7, k_outlet_sleeve = 197.3, sigma_outlet_sleeve = 3.2896E7, rho_outlet_sleeve = 622.77, Cp_inlet_sleeve = 941.34, k_inlet_sleeve = 220.91, sigma_inlet_sleeve = 3.3325E7, rho_inlet_sleeve = 1989.3) (degC), Point: 201Temperature (Cp_Al = 804.93, k_Al = 106.8, sigma_Al = 1.4257E7, rho_Al = 2720.7, Cp_inlet = 1203.4, k_inlet = 116.96, sigma_inlet = 3.6823E7, rho_inlet = 1742.4, Cp_outlet = 527.44, k_outlet = 145.15, sigma_outlet = 2.1338E7, rho_outlet = 3207.5, Cp_outlet_sleeve = 1140.7, k_outlet_sleeve = 197.3, sigma_outlet_sleeve = 3.2896E7, rho_outlet_sleeve = 622.77, Cp_inlet_sleeve = 941.34, k_inlet_sleeve = 220.91, sigma_inlet_sleeve = 3.3325E7, rho_inlet_sleeve = 1989.3) (degC), Point: 210Temperature (Cp_Al = 804.93, k_Al = 106.8, sigma_Al = 1.4257E7, rho_Al = 2720.7, Cp_inlet = 1203.4, k_inlet = 116.96, sigma_inlet = 3.6823E7, rho_inlet = 1742.4, Cp_outlet = 527.44, k_outlet = 145.15, sigma_outlet = 2.1338E7, rho_outlet = 3207.5, Cp_outlet_sleeve = 1140.7, k_outlet_sleeve = 197.3, sigma_outlet_sleeve = 3.2896E7, rho_outlet_sleeve = 622.77, Cp_inlet_sleeve = 941.34, k_inlet_sleeve = 220.91, sigma_inlet_sleeve = 3.3325E7, rho_inlet_sleeve = 1989.3) (degC), Point: 213Temperature (Cp_Al = 804.93, k_Al = 106.8, sigma_Al = 1.4257E7, rho_Al = 2720.7, Cp_inlet = 1203.4, k_inlet = 116.96, sigma_inlet = 3.6823E7, rho_inlet = 1742.4, Cp_outlet = 527.44, k_outlet = 145.15, sigma_outlet = 2.1338E7, rho_outlet = 3207.5, Cp_outlet_sleeve = 1140.7, k_outlet_sleeve = 197.3, sigma_outlet_sleeve = 3.2896E7, rho_outlet_sleeve = 622.77, Cp_inlet_sleeve = 941.34, k_inlet_sleeve = 220.91, sigma_inlet_sleeve = 3.3325E7, rho_inlet_sleeve = 1989.3) (degC), Point: 215Temperature (Cp_Al = 804.93, k_Al = 106.8, sigma_Al = 1.4257E7, rho_Al = 2720.7, Cp_inlet = 1203.4, k_inlet = 116.96, sigma_inlet = 3.6823E7, rho_inlet = 1742.4, Cp_outlet = 527.44, k_outlet = 145.15, sigma_outlet = 2.1338E7, rho_outlet = 3207.5, Cp_outlet_sleeve = 1140.7, k_outlet_sleeve = 197.3, sigma_outlet_sleeve = 3.2896E7, rho_outlet_sleeve = 622.77, Cp_inlet_sleeve = 941.34, k_inlet_sleeve = 220.91, sigma_inlet_sleeve = 3.3325E7, rho_inlet_sleeve = 1989.3) (degC), Point: 229Temperature (Cp_Al = 804.93, k_Al = 106.8, sigma_Al = 1.4257E7, rho_Al = 2720.7, Cp_inlet = 1203.4, k_inlet = 116.96, sigma_inlet = 3.6823E7, rho_inlet = 1742.4, Cp_outlet = 527.44, k_outlet = 145.15, sigma_outlet = 2.1338E7, rho_outlet = 3207.5, Cp_outlet_sleeve = 1140.7, k_outlet_sleeve = 197.3, sigma_outlet_sleeve = 3.2896E7, rho_outlet_sleeve = 622.77, Cp_inlet_sleeve = 941.34, k_inlet_sleeve = 220.91, sigma_inlet_sleeve = 3.3325E7, rho_inlet_sleeve = 1989.3) (degC), Point: 232Temperature (Cp_Al = 804.93, k_Al = 106.8, sigma_Al = 1.4257E7, rho_Al = 2720.7, Cp_inlet = 1203.4, k_inlet = 116.96, sigma_inlet = 3.6823E7, rho_inlet = 1742.4, Cp_outlet = 527.44, k_outlet = 145.15, sigma_outlet = 2.1338E7, rho_outlet = 3207.5, Cp_outlet_sleeve = 1140.7, k_outlet_sleeve = 197.3, sigma_outlet_sleeve = 3.2896E7, rho_outlet_sleeve = 622.77, Cp_inlet_sleeve = 941.34, k_inlet_sleeve = 220.91, sigma_inlet_sleeve = 3.3325E7, rho_inlet_sleeve = 1989.3) (degC), Point: 239Temperature (Cp_Al = 804.93, k_Al = 106.8, sigma_Al = 1.4257E7, rho_Al = 2720.7, Cp_inlet = 1203.4, k_inlet = 116.96, sigma_inlet = 3.6823E7, rho_inlet = 1742.4, Cp_outlet = 527.44, k_outlet = 145.15, sigma_outlet = 2.1338E7, rho_outlet = 3207.5, Cp_outlet_sleeve = 1140.7, k_outlet_sleeve = 197.3, sigma_outlet_sleeve = 3.2896E7, rho_outlet_sleeve = 622.77, Cp_inlet_sleeve = 941.34, k_inlet_sleeve = 220.91, sigma_inlet_sleeve = 3.3325E7, rho_inlet_sleeve = 1989.3) (degC), Point: 252Temperature (Cp_Al = 804.93, k_Al = 106.8, sigma_Al = 1.4257E7, rho_Al = 2720.7, Cp_inlet = 1203.4, k_inlet = 116.96, sigma_inlet = 3.6823E7, rho_inlet = 1742.4, Cp_outlet = 527.44, k_outlet = 145.15, sigma_outlet = 2.1338E7, rho_outlet = 3207.5, Cp_outlet_sleeve = 1140.7, k_outlet_sleeve = 197.3, sigma_outlet_sleeve = 3.2896E7, rho_outlet_sleeve = 622.77, Cp_inlet_sleeve = 941.34, k_inlet_sleeve = 220.91, sigma_inlet_sleeve = 3.3325E7, rho_inlet_sleeve = 1989.3) (degC), Point: 261Temperature (Cp_Al = 804.93, k_Al = 106.8, sigma_Al = 1.4257E7, rho_Al = 2720.7, Cp_inlet = 1203.4, k_inlet = 116.96, sigma_inlet = 3.6823E7, rho_inlet = 1742.4, Cp_outlet = 527.44, k_outlet = 145.15, sigma_outlet = 2.1338E7, rho_outlet = 3207.5, Cp_outlet_sleeve = 1140.7, k_outlet_sleeve = 197.3, sigma_outlet_sleeve = 3.2896E7, rho_outlet_sleeve = 622.77, Cp_inlet_sleeve = 941.34, k_inlet_sleeve = 220.91, sigma_inlet_sleeve = 3.3325E7, rho_inlet_sleeve = 1989.3) (degC), Point: 270Temperature (Cp_Al = 804.93, k_Al = 106.8, sigma_Al = 1.4257E7, rho_Al = 2720.7, Cp_inlet = 1203.4, k_inlet = 116.96, sigma_inlet = 3.6823E7, rho_inlet = 1742.4, Cp_outlet = 527.44, k_outlet = 145.15, sigma_outlet = 2.1338E7, rho_outlet = 3207.5, Cp_outlet_sleeve = 1140.7, k_outlet_sleeve = 197.3, sigma_outlet_sleeve = 3.2896E7, rho_outlet_sleeve = 622.77, Cp_inlet_sleeve = 941.34, k_inlet_sleeve = 220.91, sigma_inlet_sleeve = 3.3325E7, rho_inlet_sleeve = 1989.3) (degC), Point: 273Temperature (Cp_Al = 804.93, k_Al = 106.8, sigma_Al = 1.4257E7, rho_Al = 2720.7, Cp_inlet = 1203.4, k_inlet = 116.96, sigma_inlet = 3.6823E7, rho_inlet = 1742.4, Cp_outlet = 527.44, k_outlet = 145.15, sigma_outlet = 2.1338E7, rho_outlet = 3207.5, Cp_outlet_sleeve = 1140.7, k_outlet_sleeve = 197.3, sigma_outlet_sleeve = 3.2896E7, rho_outlet_sleeve = 622.77, Cp_inlet_sleeve = 941.34, k_inlet_sleeve = 220.91, sigma_inlet_sleeve = 3.3325E7, rho_inlet_sleeve = 1989.3) (degC), Point: 275
0                        22.637251727345983       21.0374000673213         21.13941141291008        21.011212696079497       21.017822891768958       21.109523224894133       21.009170915635252       21.028339114496703       21.00197342820502        21.024799299974916       21.001287730600666       21.00067761397105        21.009453280409332       21.00012871604224        21.00830116012321        21.05423384766175        21.000115441572802       21.012016876497682       21.000868767666645       21.000338532220212       21.00180974407425        21.00040154529364        21.000769097032958       21.009192830508937       21.120206240619325       21.017198585946687       21.61138484422696        21.01117932095798        21.15312803149203        21.042634399737153       22.817658970003208
3                        403.5470890886626        374.19906889582103       386.6954338235456        382.67473230529833       296.60714685542143       309.57510054903605       308.222622884908         295.85337896945134       292.1678699345748        301.89987717110307       303.9957527330474        294.7251824203454        292.1719645409511        281.29316866272893       285.23120695468174       342.3160231563537        337.4909492705991        347.16312078507417       349.0817853767476        341.9110961250366        340.80388451726935       334.1669206665633        337.4206637853316        310.16307052344507       311.8594236004416        297.6588739544261        321.4452588631709        382.14359967006726       386.30057603761463       370.6320475387781        404.31801280259583
6                        537.2391216146805        506.32647594772095       524.6070429801157        522.084743163697         430.97176334337405       449.3385283044719        449.38029377555574       431.635403854856         426.29603278086495       441.50047793168585       444.9967762626975        435.6812972319593        431.73007076019474       415.3623782632329        420.9487077714506        474.10323677588826       467.6163077212285        483.3352893191957        486.81346388990835       479.8475417249483        477.25820988292605       464.7898148996144        469.6396421905082        450.98068007726783       451.2404564775103        431.4872934143582        456.9576774809202        518.3299968655556        520.9402598058344        499.11586424784264       534.5303324462661
9                        610.7419041087476        579.0886838103286        600.385374993836         598.848645433628         507.83643355639913       529.3994021266917        530.4679642297765        509.2181101001397        503.0208868766206        521.4692783532408        525.9967849710317        516.6575419857418        511.6752012572001        492.0534386280534        498.4935216164058        546.6355948480318        539.3537913127855        558.2419536133381        562.7447810123085        555.850191749514         552.2559571763005        536.6751541027377        542.3003094097057        531.8828129171654        531.0835287687079        508.03622705483804       534.3823336590925        593.4667092452835        595.0305621948341        569.9063656174898        606.1690625647653
12                       662.8530110342423        630.7197583595661        654.0376751124313        653.2085775547498        560.8573181881505        584.5227674882076        586.3230738907907        562.6814465141954        555.9546137345777        576.5363710948226        581.7985210783254        572.4464651703524        566.728817274009         544.9658329088293        551.9329021697573        598.1954035260746        590.3992407158189        611.4108094832676        616.6492363174953        609.8119074831861        605.4834547190629        587.7892237175714        593.9222280377771        587.6280666510115        586.0738632444792        560.8600027433145        587.7470719965908        646.9539552416153        647.7536740815465        620.3910194698761        657.207964036912
15                       704.2112159442183        671.7195580874668        696.5775528874831        696.3097741231617        601.3713068192492        626.5137064711083        628.8514677723838        603.4937964160237        596.4095573293374        618.4897817743615        624.291454900609         614.9337477275162        608.6758863099508        585.4091374857           592.7314780550355        639.194529966523         631.0159760658746        653.6417839543731        659.4628531641799        652.6972583287164        647.7819558502061        628.4696307380982        634.982260184701         630.0870297132891        627.9782892445332        601.2432396568516        628.4952048096775        689.5398485495673        689.7298386394643        660.6582799039933        697.8875229028422
18                       738.8040628778093        706.0313340533172        732.1185805975596        732.3135354912113        634.0406364375563        660.2515545862818        662.9940796625924        636.3699225590165        629.0371518147474        652.201507570681         658.409498939532         649.0506715111998        642.3858955481344        618.0316913488176        625.6006715976489        673.5398146873989        665.06259730479          688.9737942470515        695.2743837031892        688.5873960133005        683.1866589881656        662.5809961602718        669.390769234903         664.1847686192705        661.6583434895311        633.8233139853646        661.328815419943         725.2301728221562        724.9167212720419        694.4831964158675        732.0336546158896
21                       769.3428646869583        736.3378823412161        763.4512180612263        764.0389810003404        662.1408829006799        689.1702668402513        692.231714796852         664.6234167974449        657.106015851969         681.1008123412602        687.6289550381995        678.2715026777851        671.2861005353792        646.0994498351372        653.8513075922249        703.8927173195333        695.1695574859541        720.1513731391855        726.8584044842819        720.2504707730166        714.4376916231046        692.7541735322604        699.8084301554964        693.3916629668961        690.5361310667238        661.8591157458746        689.5527322584051        756.7466414316085        756.0065568116823        724.440863624685         762.2545743007043
24                       797.1459952810397        763.9451187870183        791.9289038109079        792.8524638345733        687.3994360216229        715.0866943076338        718.4097515491377        690.002415742371         682.3401763944901        707.0023194316188        713.7930555253793        704.4382128920693        697.1898345510539        671.3346203684675        679.2296952441727        731.5500098007416        722.6200094142067        748.508327789589         755.562363874088         749.0291520002003        742.8645577819423        720.2688831065356        727.5284255328612        719.5479169094215        716.422483748834         687.0694354554319        714.9103833298789        785.4120798371292        784.3082164661033        751.7864568238195        789.8204946089005
27                       822.8663701351974        789.5000407006577        818.2223159510287        819.4319183107951        710.7170039495106        738.9498509389961        742.493303994486         713.4184822543123        705.6386061373098        730.8539079599602        737.8658218784487        728.5141079552004        721.0442309822394        694.6350927747764        702.6463266172954        757.1545988679253        748.0503480901393        774.7064253551201        782.0557146987206        775.5902945753782        769.1264110397186        745.7586584170728        753.1909011132747        743.615957911493         740.2632469925207        710.3503994323119        738.3107787450614        811.8843893719012        810.4714255764817        777.141952558694         815.3608202808394
