% Model:              brazing.mph
% Version:            COMSOL 5.3.0.223
% Date:               Oct 24 2018, 03:06
% Table:              Table 3 - 
% Time (s)               Temperature (Cp_Al = 867.68, k_Al = 144.56, sigma_Al = 3.9388E7, rho_Al = 2620.5, Cp_inlet = 931.49, k_inlet = 156.18, sigma_inlet = 3.3864E7, rho_inlet = 2415.8, Cp_outlet = 836.25, k_outlet = 152.34, sigma_outlet = 3.7067E7, rho_outlet = 2584.1, Cp_outlet_sleeve = 848.76, k_outlet_sleeve = 164.53, sigma_outlet_sleeve = 3.4667E7, rho_outlet_sleeve = 2473.6, Cp_inlet_sleeve = 922.23, k_inlet_sleeve = 158.39, sigma_inlet_sleeve = 4.1467E7, rho_inlet_sleeve = 2582) (degC), Point: 55Temperature (Cp_Al = 867.68, k_Al = 144.56, sigma_Al = 3.9388E7, rho_Al = 2620.5, Cp_inlet = 931.49, k_inlet = 156.18, sigma_inlet = 3.3864E7, rho_inlet = 2415.8, Cp_outlet = 836.25, k_outlet = 152.34, sigma_outlet = 3.7067E7, rho_outlet = 2584.1, Cp_outlet_sleeve = 848.76, k_outlet_sleeve = 164.53, sigma_outlet_sleeve = 3.4667E7, rho_outlet_sleeve = 2473.6, Cp_inlet_sleeve = 922.23, k_inlet_sleeve = 158.39, sigma_inlet_sleeve = 4.1467E7, rho_inlet_sleeve = 2582) (degC), Point: 56Temperature (Cp_Al = 867.68, k_Al = 144.56, sigma_Al = 3.9388E7, rho_Al = 2620.5, Cp_inlet = 931.49, k_inlet = 156.18, sigma_inlet = 3.3864E7, rho_inlet = 2415.8, Cp_outlet = 836.25, k_outlet = 152.34, sigma_outlet = 3.7067E7, rho_outlet = 2584.1, Cp_outlet_sleeve = 848.76, k_outlet_sleeve = 164.53, sigma_outlet_sleeve = 3.4667E7, rho_outlet_sleeve = 2473.6, Cp_inlet_sleeve = 922.23, k_inlet_sleeve = 158.39, sigma_inlet_sleeve = 4.1467E7, rho_inlet_sleeve = 2582) (degC), Point: 60Temperature (Cp_Al = 867.68, k_Al = 144.56, sigma_Al = 3.9388E7, rho_Al = 2620.5, Cp_inlet = 931.49, k_inlet = 156.18, sigma_inlet = 3.3864E7, rho_inlet = 2415.8, Cp_outlet = 836.25, k_outlet = 152.34, sigma_outlet = 3.7067E7, rho_outlet = 2584.1, Cp_outlet_sleeve = 848.76, k_outlet_sleeve = 164.53, sigma_outlet_sleeve = 3.4667E7, rho_outlet_sleeve = 2473.6, Cp_inlet_sleeve = 922.23, k_inlet_sleeve = 158.39, sigma_inlet_sleeve = 4.1467E7, rho_inlet_sleeve = 2582) (degC), Point: 69Temperature (Cp_Al = 867.68, k_Al = 144.56, sigma_Al = 3.9388E7, rho_Al = 2620.5, Cp_inlet = 931.49, k_inlet = 156.18, sigma_inlet = 3.3864E7, rho_inlet = 2415.8, Cp_outlet = 836.25, k_outlet = 152.34, sigma_outlet = 3.7067E7, rho_outlet = 2584.1, Cp_outlet_sleeve = 848.76, k_outlet_sleeve = 164.53, sigma_outlet_sleeve = 3.4667E7, rho_outlet_sleeve = 2473.6, Cp_inlet_sleeve = 922.23, k_inlet_sleeve = 158.39, sigma_inlet_sleeve = 4.1467E7, rho_inlet_sleeve = 2582) (degC), Point: 90Temperature (Cp_Al = 867.68, k_Al = 144.56, sigma_Al = 3.9388E7, rho_Al = 2620.5, Cp_inlet = 931.49, k_inlet = 156.18, sigma_inlet = 3.3864E7, rho_inlet = 2415.8, Cp_outlet = 836.25, k_outlet = 152.34, sigma_outlet = 3.7067E7, rho_outlet = 2584.1, Cp_outlet_sleeve = 848.76, k_outlet_sleeve = 164.53, sigma_outlet_sleeve = 3.4667E7, rho_outlet_sleeve = 2473.6, Cp_inlet_sleeve = 922.23, k_inlet_sleeve = 158.39, sigma_inlet_sleeve = 4.1467E7, rho_inlet_sleeve = 2582) (degC), Point: 98Temperature (Cp_Al = 867.68, k_Al = 144.56, sigma_Al = 3.9388E7, rho_Al = 2620.5, Cp_inlet = 931.49, k_inlet = 156.18, sigma_inlet = 3.3864E7, rho_inlet = 2415.8, Cp_outlet = 836.25, k_outlet = 152.34, sigma_outlet = 3.7067E7, rho_outlet = 2584.1, Cp_outlet_sleeve = 848.76, k_outlet_sleeve = 164.53, sigma_outlet_sleeve = 3.4667E7, rho_outlet_sleeve = 2473.6, Cp_inlet_sleeve = 922.23, k_inlet_sleeve = 158.39, sigma_inlet_sleeve = 4.1467E7, rho_inlet_sleeve = 2582) (degC), Point: 102Temperature (Cp_Al = 867.68, k_Al = 144.56, sigma_Al = 3.9388E7, rho_Al = 2620.5, Cp_inlet = 931.49, k_inlet = 156.18, sigma_inlet = 3.3864E7, rho_inlet = 2415.8, Cp_outlet = 836.25, k_outlet = 152.34, sigma_outlet = 3.7067E7, rho_outlet = 2584.1, Cp_outlet_sleeve = 848.76, k_outlet_sleeve = 164.53, sigma_outlet_sleeve = 3.4667E7, rho_outlet_sleeve = 2473.6, Cp_inlet_sleeve = 922.23, k_inlet_sleeve = 158.39, sigma_inlet_sleeve = 4.1467E7, rho_inlet_sleeve = 2582) (degC), Point: 127Temperature (Cp_Al = 867.68, k_Al = 144.56, sigma_Al = 3.9388E7, rho_Al = 2620.5, Cp_inlet = 931.49, k_inlet = 156.18, sigma_inlet = 3.3864E7, rho_inlet = 2415.8, Cp_outlet = 836.25, k_outlet = 152.34, sigma_outlet = 3.7067E7, rho_outlet = 2584.1, Cp_outlet_sleeve = 848.76, k_outlet_sleeve = 164.53, sigma_outlet_sleeve = 3.4667E7, rho_outlet_sleeve = 2473.6, Cp_inlet_sleeve = 922.23, k_inlet_sleeve = 158.39, sigma_inlet_sleeve = 4.1467E7, rho_inlet_sleeve = 2582) (degC), Point: 128Temperature (Cp_Al = 867.68, k_Al = 144.56, sigma_Al = 3.9388E7, rho_Al = 2620.5, Cp_inlet = 931.49, k_inlet = 156.18, sigma_inlet = 3.3864E7, rho_inlet = 2415.8, Cp_outlet = 836.25, k_outlet = 152.34, sigma_outlet = 3.7067E7, rho_outlet = 2584.1, Cp_outlet_sleeve = 848.76, k_outlet_sleeve = 164.53, sigma_outlet_sleeve = 3.4667E7, rho_outlet_sleeve = 2473.6, Cp_inlet_sleeve = 922.23, k_inlet_sleeve = 158.39, sigma_inlet_sleeve = 4.1467E7, rho_inlet_sleeve = 2582) (degC), Point: 134Temperature (Cp_Al = 867.68, k_Al = 144.56, sigma_Al = 3.9388E7, rho_Al = 2620.5, Cp_inlet = 931.49, k_inlet = 156.18, sigma_inlet = 3.3864E7, rho_inlet = 2415.8, Cp_outlet = 836.25, k_outlet = 152.34, sigma_outlet = 3.7067E7, rho_outlet = 2584.1, Cp_outlet_sleeve = 848.76, k_outlet_sleeve = 164.53, sigma_outlet_sleeve = 3.4667E7, rho_outlet_sleeve = 2473.6, Cp_inlet_sleeve = 922.23, k_inlet_sleeve = 158.39, sigma_inlet_sleeve = 4.1467E7, rho_inlet_sleeve = 2582) (degC), Point: 138Temperature (Cp_Al = 867.68, k_Al = 144.56, sigma_Al = 3.9388E7, rho_Al = 2620.5, Cp_inlet = 931.49, k_inlet = 156.18, sigma_inlet = 3.3864E7, rho_inlet = 2415.8, Cp_outlet = 836.25, k_outlet = 152.34, sigma_outlet = 3.7067E7, rho_outlet = 2584.1, Cp_outlet_sleeve = 848.76, k_outlet_sleeve = 164.53, sigma_outlet_sleeve = 3.4667E7, rho_outlet_sleeve = 2473.6, Cp_inlet_sleeve = 922.23, k_inlet_sleeve = 158.39, sigma_inlet_sleeve = 4.1467E7, rho_inlet_sleeve = 2582) (degC), Point: 151Temperature (Cp_Al = 867.68, k_Al = 144.56, sigma_Al = 3.9388E7, rho_Al = 2620.5, Cp_inlet = 931.49, k_inlet = 156.18, sigma_inlet = 3.3864E7, rho_inlet = 2415.8, Cp_outlet = 836.25, k_outlet = 152.34, sigma_outlet = 3.7067E7, rho_outlet = 2584.1, Cp_outlet_sleeve = 848.76, k_outlet_sleeve = 164.53, sigma_outlet_sleeve = 3.4667E7, rho_outlet_sleeve = 2473.6, Cp_inlet_sleeve = 922.23, k_inlet_sleeve = 158.39, sigma_inlet_sleeve = 4.1467E7, rho_inlet_sleeve = 2582) (degC), Point: 154Temperature (Cp_Al = 867.68, k_Al = 144.56, sigma_Al = 3.9388E7, rho_Al = 2620.5, Cp_inlet = 931.49, k_inlet = 156.18, sigma_inlet = 3.3864E7, rho_inlet = 2415.8, Cp_outlet = 836.25, k_outlet = 152.34, sigma_outlet = 3.7067E7, rho_outlet = 2584.1, Cp_outlet_sleeve = 848.76, k_outlet_sleeve = 164.53, sigma_outlet_sleeve = 3.4667E7, rho_outlet_sleeve = 2473.6, Cp_inlet_sleeve = 922.23, k_inlet_sleeve = 158.39, sigma_inlet_sleeve = 4.1467E7, rho_inlet_sleeve = 2582) (degC), Point: 159Temperature (Cp_Al = 867.68, k_Al = 144.56, sigma_Al = 3.9388E7, rho_Al = 2620.5, Cp_inlet = 931.49, k_inlet = 156.18, sigma_inlet = 3.3864E7, rho_inlet = 2415.8, Cp_outlet = 836.25, k_outlet = 152.34, sigma_outlet = 3.7067E7, rho_outlet = 2584.1, Cp_outlet_sleeve = 848.76, k_outlet_sleeve = 164.53, sigma_outlet_sleeve = 3.4667E7, rho_outlet_sleeve = 2473.6, Cp_inlet_sleeve = 922.23, k_inlet_sleeve = 158.39, sigma_inlet_sleeve = 4.1467E7, rho_inlet_sleeve = 2582) (degC), Point: 163Temperature (Cp_Al = 867.68, k_Al = 144.56, sigma_Al = 3.9388E7, rho_Al = 2620.5, Cp_inlet = 931.49, k_inlet = 156.18, sigma_inlet = 3.3864E7, rho_inlet = 2415.8, Cp_outlet = 836.25, k_outlet = 152.34, sigma_outlet = 3.7067E7, rho_outlet = 2584.1, Cp_outlet_sleeve = 848.76, k_outlet_sleeve = 164.53, sigma_outlet_sleeve = 3.4667E7, rho_outlet_sleeve = 2473.6, Cp_inlet_sleeve = 922.23, k_inlet_sleeve = 158.39, sigma_inlet_sleeve = 4.1467E7, rho_inlet_sleeve = 2582) (degC), Point: 167Temperature (Cp_Al = 867.68, k_Al = 144.56, sigma_Al = 3.9388E7, rho_Al = 2620.5, Cp_inlet = 931.49, k_inlet = 156.18, sigma_inlet = 3.3864E7, rho_inlet = 2415.8, Cp_outlet = 836.25, k_outlet = 152.34, sigma_outlet = 3.7067E7, rho_outlet = 2584.1, Cp_outlet_sleeve = 848.76, k_outlet_sleeve = 164.53, sigma_outlet_sleeve = 3.4667E7, rho_outlet_sleeve = 2473.6, Cp_inlet_sleeve = 922.23, k_inlet_sleeve = 158.39, sigma_inlet_sleeve = 4.1467E7, rho_inlet_sleeve = 2582) (degC), Point: 168Temperature (Cp_Al = 867.68, k_Al = 144.56, sigma_Al = 3.9388E7, rho_Al = 2620.5, Cp_inlet = 931.49, k_inlet = 156.18, sigma_inlet = 3.3864E7, rho_inlet = 2415.8, Cp_outlet = 836.25, k_outlet = 152.34, sigma_outlet = 3.7067E7, rho_outlet = 2584.1, Cp_outlet_sleeve = 848.76, k_outlet_sleeve = 164.53, sigma_outlet_sleeve = 3.4667E7, rho_outlet_sleeve = 2473.6, Cp_inlet_sleeve = 922.23, k_inlet_sleeve = 158.39, sigma_inlet_sleeve = 4.1467E7, rho_inlet_sleeve = 2582) (degC), Point: 172Temperature (Cp_Al = 867.68, k_Al = 144.56, sigma_Al = 3.9388E7, rho_Al = 2620.5, Cp_inlet = 931.49, k_inlet = 156.18, sigma_inlet = 3.3864E7, rho_inlet = 2415.8, Cp_outlet = 836.25, k_outlet = 152.34, sigma_outlet = 3.7067E7, rho_outlet = 2584.1, Cp_outlet_sleeve = 848.76, k_outlet_sleeve = 164.53, sigma_outlet_sleeve = 3.4667E7, rho_outlet_sleeve = 2473.6, Cp_inlet_sleeve = 922.23, k_inlet_sleeve = 158.39, sigma_inlet_sleeve = 4.1467E7, rho_inlet_sleeve = 2582) (degC), Point: 181Temperature (Cp_Al = 867.68, k_Al = 144.56, sigma_Al = 3.9388E7, rho_Al = 2620.5, Cp_inlet = 931.49, k_inlet = 156.18, sigma_inlet = 3.3864E7, rho_inlet = 2415.8, Cp_outlet = 836.25, k_outlet = 152.34, sigma_outlet = 3.7067E7, rho_outlet = 2584.1, Cp_outlet_sleeve = 848.76, k_outlet_sleeve = 164.53, sigma_outlet_sleeve = 3.4667E7, rho_outlet_sleeve = 2473.6, Cp_inlet_sleeve = 922.23, k_inlet_sleeve = 158.39, sigma_inlet_sleeve = 4.1467E7, rho_inlet_sleeve = 2582) (degC), Point: 201Temperature (Cp_Al = 867.68, k_Al = 144.56, sigma_Al = 3.9388E7, rho_Al = 2620.5, Cp_inlet = 931.49, k_inlet = 156.18, sigma_inlet = 3.3864E7, rho_inlet = 2415.8, Cp_outlet = 836.25, k_outlet = 152.34, sigma_outlet = 3.7067E7, rho_outlet = 2584.1, Cp_outlet_sleeve = 848.76, k_outlet_sleeve = 164.53, sigma_outlet_sleeve = 3.4667E7, rho_outlet_sleeve = 2473.6, Cp_inlet_sleeve = 922.23, k_inlet_sleeve = 158.39, sigma_inlet_sleeve = 4.1467E7, rho_inlet_sleeve = 2582) (degC), Point: 210Temperature (Cp_Al = 867.68, k_Al = 144.56, sigma_Al = 3.9388E7, rho_Al = 2620.5, Cp_inlet = 931.49, k_inlet = 156.18, sigma_inlet = 3.3864E7, rho_inlet = 2415.8, Cp_outlet = 836.25, k_outlet = 152.34, sigma_outlet = 3.7067E7, rho_outlet = 2584.1, Cp_outlet_sleeve = 848.76, k_outlet_sleeve = 164.53, sigma_outlet_sleeve = 3.4667E7, rho_outlet_sleeve = 2473.6, Cp_inlet_sleeve = 922.23, k_inlet_sleeve = 158.39, sigma_inlet_sleeve = 4.1467E7, rho_inlet_sleeve = 2582) (degC), Point: 213Temperature (Cp_Al = 867.68, k_Al = 144.56, sigma_Al = 3.9388E7, rho_Al = 2620.5, Cp_inlet = 931.49, k_inlet = 156.18, sigma_inlet = 3.3864E7, rho_inlet = 2415.8, Cp_outlet = 836.25, k_outlet = 152.34, sigma_outlet = 3.7067E7, rho_outlet = 2584.1, Cp_outlet_sleeve = 848.76, k_outlet_sleeve = 164.53, sigma_outlet_sleeve = 3.4667E7, rho_outlet_sleeve = 2473.6, Cp_inlet_sleeve = 922.23, k_inlet_sleeve = 158.39, sigma_inlet_sleeve = 4.1467E7, rho_inlet_sleeve = 2582) (degC), Point: 215Temperature (Cp_Al = 867.68, k_Al = 144.56, sigma_Al = 3.9388E7, rho_Al = 2620.5, Cp_inlet = 931.49, k_inlet = 156.18, sigma_inlet = 3.3864E7, rho_inlet = 2415.8, Cp_outlet = 836.25, k_outlet = 152.34, sigma_outlet = 3.7067E7, rho_outlet = 2584.1, Cp_outlet_sleeve = 848.76, k_outlet_sleeve = 164.53, sigma_outlet_sleeve = 3.4667E7, rho_outlet_sleeve = 2473.6, Cp_inlet_sleeve = 922.23, k_inlet_sleeve = 158.39, sigma_inlet_sleeve = 4.1467E7, rho_inlet_sleeve = 2582) (degC), Point: 229Temperature (Cp_Al = 867.68, k_Al = 144.56, sigma_Al = 3.9388E7, rho_Al = 2620.5, Cp_inlet = 931.49, k_inlet = 156.18, sigma_inlet = 3.3864E7, rho_inlet = 2415.8, Cp_outlet = 836.25, k_outlet = 152.34, sigma_outlet = 3.7067E7, rho_outlet = 2584.1, Cp_outlet_sleeve = 848.76, k_outlet_sleeve = 164.53, sigma_outlet_sleeve = 3.4667E7, rho_outlet_sleeve = 2473.6, Cp_inlet_sleeve = 922.23, k_inlet_sleeve = 158.39, sigma_inlet_sleeve = 4.1467E7, rho_inlet_sleeve = 2582) (degC), Point: 232Temperature (Cp_Al = 867.68, k_Al = 144.56, sigma_Al = 3.9388E7, rho_Al = 2620.5, Cp_inlet = 931.49, k_inlet = 156.18, sigma_inlet = 3.3864E7, rho_inlet = 2415.8, Cp_outlet = 836.25, k_outlet = 152.34, sigma_outlet = 3.7067E7, rho_outlet = 2584.1, Cp_outlet_sleeve = 848.76, k_outlet_sleeve = 164.53, sigma_outlet_sleeve = 3.4667E7, rho_outlet_sleeve = 2473.6, Cp_inlet_sleeve = 922.23, k_inlet_sleeve = 158.39, sigma_inlet_sleeve = 4.1467E7, rho_inlet_sleeve = 2582) (degC), Point: 239Temperature (Cp_Al = 867.68, k_Al = 144.56, sigma_Al = 3.9388E7, rho_Al = 2620.5, Cp_inlet = 931.49, k_inlet = 156.18, sigma_inlet = 3.3864E7, rho_inlet = 2415.8, Cp_outlet = 836.25, k_outlet = 152.34, sigma_outlet = 3.7067E7, rho_outlet = 2584.1, Cp_outlet_sleeve = 848.76, k_outlet_sleeve = 164.53, sigma_outlet_sleeve = 3.4667E7, rho_outlet_sleeve = 2473.6, Cp_inlet_sleeve = 922.23, k_inlet_sleeve = 158.39, sigma_inlet_sleeve = 4.1467E7, rho_inlet_sleeve = 2582) (degC), Point: 252Temperature (Cp_Al = 867.68, k_Al = 144.56, sigma_Al = 3.9388E7, rho_Al = 2620.5, Cp_inlet = 931.49, k_inlet = 156.18, sigma_inlet = 3.3864E7, rho_inlet = 2415.8, Cp_outlet = 836.25, k_outlet = 152.34, sigma_outlet = 3.7067E7, rho_outlet = 2584.1, Cp_outlet_sleeve = 848.76, k_outlet_sleeve = 164.53, sigma_outlet_sleeve = 3.4667E7, rho_outlet_sleeve = 2473.6, Cp_inlet_sleeve = 922.23, k_inlet_sleeve = 158.39, sigma_inlet_sleeve = 4.1467E7, rho_inlet_sleeve = 2582) (degC), Point: 261Temperature (Cp_Al = 867.68, k_Al = 144.56, sigma_Al = 3.9388E7, rho_Al = 2620.5, Cp_inlet = 931.49, k_inlet = 156.18, sigma_inlet = 3.3864E7, rho_inlet = 2415.8, Cp_outlet = 836.25, k_outlet = 152.34, sigma_outlet = 3.7067E7, rho_outlet = 2584.1, Cp_outlet_sleeve = 848.76, k_outlet_sleeve = 164.53, sigma_outlet_sleeve = 3.4667E7, rho_outlet_sleeve = 2473.6, Cp_inlet_sleeve = 922.23, k_inlet_sleeve = 158.39, sigma_inlet_sleeve = 4.1467E7, rho_inlet_sleeve = 2582) (degC), Point: 270Temperature (Cp_Al = 867.68, k_Al = 144.56, sigma_Al = 3.9388E7, rho_Al = 2620.5, Cp_inlet = 931.49, k_inlet = 156.18, sigma_inlet = 3.3864E7, rho_inlet = 2415.8, Cp_outlet = 836.25, k_outlet = 152.34, sigma_outlet = 3.7067E7, rho_outlet = 2584.1, Cp_outlet_sleeve = 848.76, k_outlet_sleeve = 164.53, sigma_outlet_sleeve = 3.4667E7, rho_outlet_sleeve = 2473.6, Cp_inlet_sleeve = 922.23, k_inlet_sleeve = 158.39, sigma_inlet_sleeve = 4.1467E7, rho_inlet_sleeve = 2582) (degC), Point: 273Temperature (Cp_Al = 867.68, k_Al = 144.56, sigma_Al = 3.9388E7, rho_Al = 2620.5, Cp_inlet = 931.49, k_inlet = 156.18, sigma_inlet = 3.3864E7, rho_inlet = 2415.8, Cp_outlet = 836.25, k_outlet = 152.34, sigma_outlet = 3.7067E7, rho_outlet = 2584.1, Cp_outlet_sleeve = 848.76, k_outlet_sleeve = 164.53, sigma_outlet_sleeve = 3.4667E7, rho_outlet_sleeve = 2473.6, Cp_inlet_sleeve = 922.23, k_inlet_sleeve = 158.39, sigma_inlet_sleeve = 4.1467E7, rho_inlet_sleeve = 2582) (degC), Point: 275
0                        21.641834713763558       21.013123230085284       21.132299573615796       21.008767798131544       21.013694655926656       21.108325038542546       21.008747707498003       21.0263167260174         21.001426672261573       21.024627824744755       21.001228860766048       21.00063998659283        21.009508230040126       21.000109106729553       21.00780449636335        21.02110900985906        21.000054672125657       21.01159892727378        21.00074088425788        21.00029953287077        21.001779407755805       21.00017428696634        21.00026509304007        21.008733995747605       21.118828936857597       21.013145314030282       21.554696847117782       21.008658724954955       21.1452241374422         21.016268000536172       21.713969275669285
3                        312.3061076353133        278.58933924234634       288.3673138340564        283.7822364497116        262.9501622391647        275.6743921400183        273.9948766641702        262.22381268464665       257.41073620893326       268.3102994058805        270.35487923003143       262.1006454135926        259.43671424900174       246.85242339506578       251.70257395696626       245.72312234851063       241.16392705170836       250.28848963929045       251.8186218546357        245.4814925783062        244.53095348787588       237.8654621969808        240.66991412787024       276.011037944715         278.1260603700898        264.51136891764736       297.86434405130626       285.3148984692233        290.1475608260489        277.7258910009831        316.3252196745773
6                        437.4335579682031        402.2012445537564        415.79934321291773       411.9579177024509        386.86384923088985       404.4993484710574        403.8714906449138        387.9498540937964        381.1665553922438        397.03104704405473       400.1326766459231        391.8607947254393        388.143594258288         370.58624733761815       377.39752981362017       369.54505436798866       363.3958115944731        376.535683440119         378.8483456372476        372.48912864768226       370.8190078238425        360.3256651475781        364.66098798508847       405.6825163753937        406.71884416877776       388.08536600553236       423.4267118808767        411.0691929426355        415.13840731667403       398.64354872009244       438.87489467312855
9                        510.8352938957464        474.70419520769383       491.01549952101675       487.9199001641242        457.5366290867994        478.44141979991184       478.7207460848142        459.6459019607038        451.74399470991955       470.9149839157411        474.9274970062121        466.6469532787157        462.01975742673926       441.15149645531767       449.0723670514152        442.0637091577727        434.9681301636847        450.9530470617648        454.0418177849846        447.80737832395914       445.3931793038105        432.15171293178787       437.40179096885663       480.4233659719814        480.52879541673383       458.55374518339215       495.02349575040853       485.59173505101785       488.8852503064761        469.48090751399366       510.6915203047939
12                       561.1817024948834        524.4459331328085        542.7440723050915        540.2603602581219        505.0451672164811        528.2140413838374        529.185644663773         507.80767764088796       499.19122937479324       520.6513896623636        525.3587274919005        517.0758750998154        511.75383000543343       488.5926701868367        497.2215062906432        491.8876582594112        484.1559081583084        502.2176224716168        505.9405744697151        499.79098116957744       496.7561427336909        481.48457869594165       487.3533331746396        530.8256865766506        530.2205957837602        505.93250893585684       543.1227927812495        537.1177595554694        539.767290273167         518.2227852895368        560.0948697571689
15                       599.3004615719204        562.1234160128112        581.9533004329919        579.9719067812516        540.5263891871278        565.3439658800122        566.847583740526         543.7414073109915        534.6310161891835        557.7574452754413        562.9986142062542        554.7169140675991        548.8607239490359        524.0303417126968        533.148186036251         529.6749852806906        521.4802249609487        541.1376460897492        545.3798286404805        539.3136895375353        535.7638536452705        518.9172496587695        525.2391675029393        568.4501507658231        567.2990098921783        541.3279288474263        579.0159613127316        576.3585026004447        578.4752341170706        555.2770108756816        597.6321018973662
18                       629.7684449499517        592.2553954215091        613.3082303103113        611.7478340168996        568.560117711316         594.62073973761          596.5440084684053        572.1014520980798        562.636359054415         587.018370946806         592.6804967395367        584.401554999879         578.1239598619132        552.0356274169951        561.5043296861305        559.9272833920758        551.3811360993376        572.3083480360326        576.9847316073407        571.0005252720889        567.0158734496449        548.906209915551         555.5739523850017        598.1246008350286        596.5427902638305        569.3042138474851        607.3493183805202        607.868461701683         609.5364288602298        585.0172072310299        627.7395210461391
21                       655.7819902028218        617.9976240079791        640.068973413333         638.8694845302952        592.3357665546462        619.3871630619724        621.6550104426518        596.1296625793741        586.3917184762473        611.773823183336         617.7814897665465        609.5059042412378        602.8822938414803        575.7919367992384        585.5303417104169        585.7912840580804        576.9624143592322        598.9439608909103        603.9918765700735        598.085318656855         593.7265545389082        574.5631975866208        581.5101743577831        623.2225309371713        621.2872096722925        593.0397529215004        631.359180188616         634.8350343180787        636.1176453478812        610.5001530647581        653.5178074017969
24                       679.0200135997899        641.0078916621399        663.9504825195108        663.0647946877932        613.5329414894951        641.409560567368         643.9699912314517        617.533427193821         607.5738803215395        633.7883680696111        640.0893385657957        631.817239101612         624.8998683264118        596.9755202314           606.9328478922164        608.9201770662052        599.8547926830084        622.7358156567101        628.1062378439589        622.2709435310561        617.5864816092471        597.5218835680304        604.7029107971308        645.5297909537991        643.2944447371802        614.2079348454662        652.7498503500033        658.9372365972722        659.8849328717586        633.3308284600522        676.595107262927
27                       700.320545462172         662.1139412795598        685.8097564996744        685.1980568817361        633.0005606318201        661.5814426442926        664.3949291197702        637.1752868082257        627.0301824333172        653.9545428320694        660.5091119760181        652.240411781386         645.0690192551648        616.4334403724611        626.5739984501125        630.1387250410019        620.8720039048986        644.5288612581339        650.1804654899122        644.4093967224218        639.4405039035487        618.5974146719442        625.977897325141         665.95044812082          663.4557466004479        633.6542180751766        672.3821773146386        681.0149646108221        681.6706146213647        654.3094961752385        697.7832427819682
