% Model:              brazing.mph
% Version:            COMSOL 5.3.0.223
% Date:               Oct 23 2018, 23:58
% Table:              Table 3 - 
% Time (s)               Temperature (Cp_Al = 939.2, k_Al = 160.3, sigma_Al = 3.6802E7, rho_Al = 2897.7, Cp_inlet = 847.6, k_inlet = 151.5, sigma_inlet = 3.5921E7, rho_inlet = 2517.5, Cp_outlet = 922.9, k_outlet = 165.7, sigma_outlet = 3.4788E7, rho_outlet = 2558.4, Cp_outlet_sleeve = 921.8, k_outlet_sleeve = 157.4, sigma_outlet_sleeve = 3.4643E7, rho_outlet_sleeve = 2486.6, Cp_inlet_sleeve = 910.4, k_inlet_sleeve = 155, sigma_inlet_sleeve = 3.9997E7, rho_inlet_sleeve = 2883.1) (degC), Point: 55Temperature (Cp_Al = 939.2, k_Al = 160.3, sigma_Al = 3.6802E7, rho_Al = 2897.7, Cp_inlet = 847.6, k_inlet = 151.5, sigma_inlet = 3.5921E7, rho_inlet = 2517.5, Cp_outlet = 922.9, k_outlet = 165.7, sigma_outlet = 3.4788E7, rho_outlet = 2558.4, Cp_outlet_sleeve = 921.8, k_outlet_sleeve = 157.4, sigma_outlet_sleeve = 3.4643E7, rho_outlet_sleeve = 2486.6, Cp_inlet_sleeve = 910.4, k_inlet_sleeve = 155, sigma_inlet_sleeve = 3.9997E7, rho_inlet_sleeve = 2883.1) (degC), Point: 56Temperature (Cp_Al = 939.2, k_Al = 160.3, sigma_Al = 3.6802E7, rho_Al = 2897.7, Cp_inlet = 847.6, k_inlet = 151.5, sigma_inlet = 3.5921E7, rho_inlet = 2517.5, Cp_outlet = 922.9, k_outlet = 165.7, sigma_outlet = 3.4788E7, rho_outlet = 2558.4, Cp_outlet_sleeve = 921.8, k_outlet_sleeve = 157.4, sigma_outlet_sleeve = 3.4643E7, rho_outlet_sleeve = 2486.6, Cp_inlet_sleeve = 910.4, k_inlet_sleeve = 155, sigma_inlet_sleeve = 3.9997E7, rho_inlet_sleeve = 2883.1) (degC), Point: 60Temperature (Cp_Al = 939.2, k_Al = 160.3, sigma_Al = 3.6802E7, rho_Al = 2897.7, Cp_inlet = 847.6, k_inlet = 151.5, sigma_inlet = 3.5921E7, rho_inlet = 2517.5, Cp_outlet = 922.9, k_outlet = 165.7, sigma_outlet = 3.4788E7, rho_outlet = 2558.4, Cp_outlet_sleeve = 921.8, k_outlet_sleeve = 157.4, sigma_outlet_sleeve = 3.4643E7, rho_outlet_sleeve = 2486.6, Cp_inlet_sleeve = 910.4, k_inlet_sleeve = 155, sigma_inlet_sleeve = 3.9997E7, rho_inlet_sleeve = 2883.1) (degC), Point: 69Temperature (Cp_Al = 939.2, k_Al = 160.3, sigma_Al = 3.6802E7, rho_Al = 2897.7, Cp_inlet = 847.6, k_inlet = 151.5, sigma_inlet = 3.5921E7, rho_inlet = 2517.5, Cp_outlet = 922.9, k_outlet = 165.7, sigma_outlet = 3.4788E7, rho_outlet = 2558.4, Cp_outlet_sleeve = 921.8, k_outlet_sleeve = 157.4, sigma_outlet_sleeve = 3.4643E7, rho_outlet_sleeve = 2486.6, Cp_inlet_sleeve = 910.4, k_inlet_sleeve = 155, sigma_inlet_sleeve = 3.9997E7, rho_inlet_sleeve = 2883.1) (degC), Point: 90Temperature (Cp_Al = 939.2, k_Al = 160.3, sigma_Al = 3.6802E7, rho_Al = 2897.7, Cp_inlet = 847.6, k_inlet = 151.5, sigma_inlet = 3.5921E7, rho_inlet = 2517.5, Cp_outlet = 922.9, k_outlet = 165.7, sigma_outlet = 3.4788E7, rho_outlet = 2558.4, Cp_outlet_sleeve = 921.8, k_outlet_sleeve = 157.4, sigma_outlet_sleeve = 3.4643E7, rho_outlet_sleeve = 2486.6, Cp_inlet_sleeve = 910.4, k_inlet_sleeve = 155, sigma_inlet_sleeve = 3.9997E7, rho_inlet_sleeve = 2883.1) (degC), Point: 98Temperature (Cp_Al = 939.2, k_Al = 160.3, sigma_Al = 3.6802E7, rho_Al = 2897.7, Cp_inlet = 847.6, k_inlet = 151.5, sigma_inlet = 3.5921E7, rho_inlet = 2517.5, Cp_outlet = 922.9, k_outlet = 165.7, sigma_outlet = 3.4788E7, rho_outlet = 2558.4, Cp_outlet_sleeve = 921.8, k_outlet_sleeve = 157.4, sigma_outlet_sleeve = 3.4643E7, rho_outlet_sleeve = 2486.6, Cp_inlet_sleeve = 910.4, k_inlet_sleeve = 155, sigma_inlet_sleeve = 3.9997E7, rho_inlet_sleeve = 2883.1) (degC), Point: 102Temperature (Cp_Al = 939.2, k_Al = 160.3, sigma_Al = 3.6802E7, rho_Al = 2897.7, Cp_inlet = 847.6, k_inlet = 151.5, sigma_inlet = 3.5921E7, rho_inlet = 2517.5, Cp_outlet = 922.9, k_outlet = 165.7, sigma_outlet = 3.4788E7, rho_outlet = 2558.4, Cp_outlet_sleeve = 921.8, k_outlet_sleeve = 157.4, sigma_outlet_sleeve = 3.4643E7, rho_outlet_sleeve = 2486.6, Cp_inlet_sleeve = 910.4, k_inlet_sleeve = 155, sigma_inlet_sleeve = 3.9997E7, rho_inlet_sleeve = 2883.1) (degC), Point: 127Temperature (Cp_Al = 939.2, k_Al = 160.3, sigma_Al = 3.6802E7, rho_Al = 2897.7, Cp_inlet = 847.6, k_inlet = 151.5, sigma_inlet = 3.5921E7, rho_inlet = 2517.5, Cp_outlet = 922.9, k_outlet = 165.7, sigma_outlet = 3.4788E7, rho_outlet = 2558.4, Cp_outlet_sleeve = 921.8, k_outlet_sleeve = 157.4, sigma_outlet_sleeve = 3.4643E7, rho_outlet_sleeve = 2486.6, Cp_inlet_sleeve = 910.4, k_inlet_sleeve = 155, sigma_inlet_sleeve = 3.9997E7, rho_inlet_sleeve = 2883.1) (degC), Point: 128Temperature (Cp_Al = 939.2, k_Al = 160.3, sigma_Al = 3.6802E7, rho_Al = 2897.7, Cp_inlet = 847.6, k_inlet = 151.5, sigma_inlet = 3.5921E7, rho_inlet = 2517.5, Cp_outlet = 922.9, k_outlet = 165.7, sigma_outlet = 3.4788E7, rho_outlet = 2558.4, Cp_outlet_sleeve = 921.8, k_outlet_sleeve = 157.4, sigma_outlet_sleeve = 3.4643E7, rho_outlet_sleeve = 2486.6, Cp_inlet_sleeve = 910.4, k_inlet_sleeve = 155, sigma_inlet_sleeve = 3.9997E7, rho_inlet_sleeve = 2883.1) (degC), Point: 134Temperature (Cp_Al = 939.2, k_Al = 160.3, sigma_Al = 3.6802E7, rho_Al = 2897.7, Cp_inlet = 847.6, k_inlet = 151.5, sigma_inlet = 3.5921E7, rho_inlet = 2517.5, Cp_outlet = 922.9, k_outlet = 165.7, sigma_outlet = 3.4788E7, rho_outlet = 2558.4, Cp_outlet_sleeve = 921.8, k_outlet_sleeve = 157.4, sigma_outlet_sleeve = 3.4643E7, rho_outlet_sleeve = 2486.6, Cp_inlet_sleeve = 910.4, k_inlet_sleeve = 155, sigma_inlet_sleeve = 3.9997E7, rho_inlet_sleeve = 2883.1) (degC), Point: 138Temperature (Cp_Al = 939.2, k_Al = 160.3, sigma_Al = 3.6802E7, rho_Al = 2897.7, Cp_inlet = 847.6, k_inlet = 151.5, sigma_inlet = 3.5921E7, rho_inlet = 2517.5, Cp_outlet = 922.9, k_outlet = 165.7, sigma_outlet = 3.4788E7, rho_outlet = 2558.4, Cp_outlet_sleeve = 921.8, k_outlet_sleeve = 157.4, sigma_outlet_sleeve = 3.4643E7, rho_outlet_sleeve = 2486.6, Cp_inlet_sleeve = 910.4, k_inlet_sleeve = 155, sigma_inlet_sleeve = 3.9997E7, rho_inlet_sleeve = 2883.1) (degC), Point: 151Temperature (Cp_Al = 939.2, k_Al = 160.3, sigma_Al = 3.6802E7, rho_Al = 2897.7, Cp_inlet = 847.6, k_inlet = 151.5, sigma_inlet = 3.5921E7, rho_inlet = 2517.5, Cp_outlet = 922.9, k_outlet = 165.7, sigma_outlet = 3.4788E7, rho_outlet = 2558.4, Cp_outlet_sleeve = 921.8, k_outlet_sleeve = 157.4, sigma_outlet_sleeve = 3.4643E7, rho_outlet_sleeve = 2486.6, Cp_inlet_sleeve = 910.4, k_inlet_sleeve = 155, sigma_inlet_sleeve = 3.9997E7, rho_inlet_sleeve = 2883.1) (degC), Point: 154Temperature (Cp_Al = 939.2, k_Al = 160.3, sigma_Al = 3.6802E7, rho_Al = 2897.7, Cp_inlet = 847.6, k_inlet = 151.5, sigma_inlet = 3.5921E7, rho_inlet = 2517.5, Cp_outlet = 922.9, k_outlet = 165.7, sigma_outlet = 3.4788E7, rho_outlet = 2558.4, Cp_outlet_sleeve = 921.8, k_outlet_sleeve = 157.4, sigma_outlet_sleeve = 3.4643E7, rho_outlet_sleeve = 2486.6, Cp_inlet_sleeve = 910.4, k_inlet_sleeve = 155, sigma_inlet_sleeve = 3.9997E7, rho_inlet_sleeve = 2883.1) (degC), Point: 159Temperature (Cp_Al = 939.2, k_Al = 160.3, sigma_Al = 3.6802E7, rho_Al = 2897.7, Cp_inlet = 847.6, k_inlet = 151.5, sigma_inlet = 3.5921E7, rho_inlet = 2517.5, Cp_outlet = 922.9, k_outlet = 165.7, sigma_outlet = 3.4788E7, rho_outlet = 2558.4, Cp_outlet_sleeve = 921.8, k_outlet_sleeve = 157.4, sigma_outlet_sleeve = 3.4643E7, rho_outlet_sleeve = 2486.6, Cp_inlet_sleeve = 910.4, k_inlet_sleeve = 155, sigma_inlet_sleeve = 3.9997E7, rho_inlet_sleeve = 2883.1) (degC), Point: 163Temperature (Cp_Al = 939.2, k_Al = 160.3, sigma_Al = 3.6802E7, rho_Al = 2897.7, Cp_inlet = 847.6, k_inlet = 151.5, sigma_inlet = 3.5921E7, rho_inlet = 2517.5, Cp_outlet = 922.9, k_outlet = 165.7, sigma_outlet = 3.4788E7, rho_outlet = 2558.4, Cp_outlet_sleeve = 921.8, k_outlet_sleeve = 157.4, sigma_outlet_sleeve = 3.4643E7, rho_outlet_sleeve = 2486.6, Cp_inlet_sleeve = 910.4, k_inlet_sleeve = 155, sigma_inlet_sleeve = 3.9997E7, rho_inlet_sleeve = 2883.1) (degC), Point: 167Temperature (Cp_Al = 939.2, k_Al = 160.3, sigma_Al = 3.6802E7, rho_Al = 2897.7, Cp_inlet = 847.6, k_inlet = 151.5, sigma_inlet = 3.5921E7, rho_inlet = 2517.5, Cp_outlet = 922.9, k_outlet = 165.7, sigma_outlet = 3.4788E7, rho_outlet = 2558.4, Cp_outlet_sleeve = 921.8, k_outlet_sleeve = 157.4, sigma_outlet_sleeve = 3.4643E7, rho_outlet_sleeve = 2486.6, Cp_inlet_sleeve = 910.4, k_inlet_sleeve = 155, sigma_inlet_sleeve = 3.9997E7, rho_inlet_sleeve = 2883.1) (degC), Point: 168Temperature (Cp_Al = 939.2, k_Al = 160.3, sigma_Al = 3.6802E7, rho_Al = 2897.7, Cp_inlet = 847.6, k_inlet = 151.5, sigma_inlet = 3.5921E7, rho_inlet = 2517.5, Cp_outlet = 922.9, k_outlet = 165.7, sigma_outlet = 3.4788E7, rho_outlet = 2558.4, Cp_outlet_sleeve = 921.8, k_outlet_sleeve = 157.4, sigma_outlet_sleeve = 3.4643E7, rho_outlet_sleeve = 2486.6, Cp_inlet_sleeve = 910.4, k_inlet_sleeve = 155, sigma_inlet_sleeve = 3.9997E7, rho_inlet_sleeve = 2883.1) (degC), Point: 172Temperature (Cp_Al = 939.2, k_Al = 160.3, sigma_Al = 3.6802E7, rho_Al = 2897.7, Cp_inlet = 847.6, k_inlet = 151.5, sigma_inlet = 3.5921E7, rho_inlet = 2517.5, Cp_outlet = 922.9, k_outlet = 165.7, sigma_outlet = 3.4788E7, rho_outlet = 2558.4, Cp_outlet_sleeve = 921.8, k_outlet_sleeve = 157.4, sigma_outlet_sleeve = 3.4643E7, rho_outlet_sleeve = 2486.6, Cp_inlet_sleeve = 910.4, k_inlet_sleeve = 155, sigma_inlet_sleeve = 3.9997E7, rho_inlet_sleeve = 2883.1) (degC), Point: 181Temperature (Cp_Al = 939.2, k_Al = 160.3, sigma_Al = 3.6802E7, rho_Al = 2897.7, Cp_inlet = 847.6, k_inlet = 151.5, sigma_inlet = 3.5921E7, rho_inlet = 2517.5, Cp_outlet = 922.9, k_outlet = 165.7, sigma_outlet = 3.4788E7, rho_outlet = 2558.4, Cp_outlet_sleeve = 921.8, k_outlet_sleeve = 157.4, sigma_outlet_sleeve = 3.4643E7, rho_outlet_sleeve = 2486.6, Cp_inlet_sleeve = 910.4, k_inlet_sleeve = 155, sigma_inlet_sleeve = 3.9997E7, rho_inlet_sleeve = 2883.1) (degC), Point: 201Temperature (Cp_Al = 939.2, k_Al = 160.3, sigma_Al = 3.6802E7, rho_Al = 2897.7, Cp_inlet = 847.6, k_inlet = 151.5, sigma_inlet = 3.5921E7, rho_inlet = 2517.5, Cp_outlet = 922.9, k_outlet = 165.7, sigma_outlet = 3.4788E7, rho_outlet = 2558.4, Cp_outlet_sleeve = 921.8, k_outlet_sleeve = 157.4, sigma_outlet_sleeve = 3.4643E7, rho_outlet_sleeve = 2486.6, Cp_inlet_sleeve = 910.4, k_inlet_sleeve = 155, sigma_inlet_sleeve = 3.9997E7, rho_inlet_sleeve = 2883.1) (degC), Point: 210Temperature (Cp_Al = 939.2, k_Al = 160.3, sigma_Al = 3.6802E7, rho_Al = 2897.7, Cp_inlet = 847.6, k_inlet = 151.5, sigma_inlet = 3.5921E7, rho_inlet = 2517.5, Cp_outlet = 922.9, k_outlet = 165.7, sigma_outlet = 3.4788E7, rho_outlet = 2558.4, Cp_outlet_sleeve = 921.8, k_outlet_sleeve = 157.4, sigma_outlet_sleeve = 3.4643E7, rho_outlet_sleeve = 2486.6, Cp_inlet_sleeve = 910.4, k_inlet_sleeve = 155, sigma_inlet_sleeve = 3.9997E7, rho_inlet_sleeve = 2883.1) (degC), Point: 213Temperature (Cp_Al = 939.2, k_Al = 160.3, sigma_Al = 3.6802E7, rho_Al = 2897.7, Cp_inlet = 847.6, k_inlet = 151.5, sigma_inlet = 3.5921E7, rho_inlet = 2517.5, Cp_outlet = 922.9, k_outlet = 165.7, sigma_outlet = 3.4788E7, rho_outlet = 2558.4, Cp_outlet_sleeve = 921.8, k_outlet_sleeve = 157.4, sigma_outlet_sleeve = 3.4643E7, rho_outlet_sleeve = 2486.6, Cp_inlet_sleeve = 910.4, k_inlet_sleeve = 155, sigma_inlet_sleeve = 3.9997E7, rho_inlet_sleeve = 2883.1) (degC), Point: 215Temperature (Cp_Al = 939.2, k_Al = 160.3, sigma_Al = 3.6802E7, rho_Al = 2897.7, Cp_inlet = 847.6, k_inlet = 151.5, sigma_inlet = 3.5921E7, rho_inlet = 2517.5, Cp_outlet = 922.9, k_outlet = 165.7, sigma_outlet = 3.4788E7, rho_outlet = 2558.4, Cp_outlet_sleeve = 921.8, k_outlet_sleeve = 157.4, sigma_outlet_sleeve = 3.4643E7, rho_outlet_sleeve = 2486.6, Cp_inlet_sleeve = 910.4, k_inlet_sleeve = 155, sigma_inlet_sleeve = 3.9997E7, rho_inlet_sleeve = 2883.1) (degC), Point: 229Temperature (Cp_Al = 939.2, k_Al = 160.3, sigma_Al = 3.6802E7, rho_Al = 2897.7, Cp_inlet = 847.6, k_inlet = 151.5, sigma_inlet = 3.5921E7, rho_inlet = 2517.5, Cp_outlet = 922.9, k_outlet = 165.7, sigma_outlet = 3.4788E7, rho_outlet = 2558.4, Cp_outlet_sleeve = 921.8, k_outlet_sleeve = 157.4, sigma_outlet_sleeve = 3.4643E7, rho_outlet_sleeve = 2486.6, Cp_inlet_sleeve = 910.4, k_inlet_sleeve = 155, sigma_inlet_sleeve = 3.9997E7, rho_inlet_sleeve = 2883.1) (degC), Point: 232Temperature (Cp_Al = 939.2, k_Al = 160.3, sigma_Al = 3.6802E7, rho_Al = 2897.7, Cp_inlet = 847.6, k_inlet = 151.5, sigma_inlet = 3.5921E7, rho_inlet = 2517.5, Cp_outlet = 922.9, k_outlet = 165.7, sigma_outlet = 3.4788E7, rho_outlet = 2558.4, Cp_outlet_sleeve = 921.8, k_outlet_sleeve = 157.4, sigma_outlet_sleeve = 3.4643E7, rho_outlet_sleeve = 2486.6, Cp_inlet_sleeve = 910.4, k_inlet_sleeve = 155, sigma_inlet_sleeve = 3.9997E7, rho_inlet_sleeve = 2883.1) (degC), Point: 239Temperature (Cp_Al = 939.2, k_Al = 160.3, sigma_Al = 3.6802E7, rho_Al = 2897.7, Cp_inlet = 847.6, k_inlet = 151.5, sigma_inlet = 3.5921E7, rho_inlet = 2517.5, Cp_outlet = 922.9, k_outlet = 165.7, sigma_outlet = 3.4788E7, rho_outlet = 2558.4, Cp_outlet_sleeve = 921.8, k_outlet_sleeve = 157.4, sigma_outlet_sleeve = 3.4643E7, rho_outlet_sleeve = 2486.6, Cp_inlet_sleeve = 910.4, k_inlet_sleeve = 155, sigma_inlet_sleeve = 3.9997E7, rho_inlet_sleeve = 2883.1) (degC), Point: 252Temperature (Cp_Al = 939.2, k_Al = 160.3, sigma_Al = 3.6802E7, rho_Al = 2897.7, Cp_inlet = 847.6, k_inlet = 151.5, sigma_inlet = 3.5921E7, rho_inlet = 2517.5, Cp_outlet = 922.9, k_outlet = 165.7, sigma_outlet = 3.4788E7, rho_outlet = 2558.4, Cp_outlet_sleeve = 921.8, k_outlet_sleeve = 157.4, sigma_outlet_sleeve = 3.4643E7, rho_outlet_sleeve = 2486.6, Cp_inlet_sleeve = 910.4, k_inlet_sleeve = 155, sigma_inlet_sleeve = 3.9997E7, rho_inlet_sleeve = 2883.1) (degC), Point: 261Temperature (Cp_Al = 939.2, k_Al = 160.3, sigma_Al = 3.6802E7, rho_Al = 2897.7, Cp_inlet = 847.6, k_inlet = 151.5, sigma_inlet = 3.5921E7, rho_inlet = 2517.5, Cp_outlet = 922.9, k_outlet = 165.7, sigma_outlet = 3.4788E7, rho_outlet = 2558.4, Cp_outlet_sleeve = 921.8, k_outlet_sleeve = 157.4, sigma_outlet_sleeve = 3.4643E7, rho_outlet_sleeve = 2486.6, Cp_inlet_sleeve = 910.4, k_inlet_sleeve = 155, sigma_inlet_sleeve = 3.9997E7, rho_inlet_sleeve = 2883.1) (degC), Point: 270Temperature (Cp_Al = 939.2, k_Al = 160.3, sigma_Al = 3.6802E7, rho_Al = 2897.7, Cp_inlet = 847.6, k_inlet = 151.5, sigma_inlet = 3.5921E7, rho_inlet = 2517.5, Cp_outlet = 922.9, k_outlet = 165.7, sigma_outlet = 3.4788E7, rho_outlet = 2558.4, Cp_outlet_sleeve = 921.8, k_outlet_sleeve = 157.4, sigma_outlet_sleeve = 3.4643E7, rho_outlet_sleeve = 2486.6, Cp_inlet_sleeve = 910.4, k_inlet_sleeve = 155, sigma_inlet_sleeve = 3.9997E7, rho_inlet_sleeve = 2883.1) (degC), Point: 273Temperature (Cp_Al = 939.2, k_Al = 160.3, sigma_Al = 3.6802E7, rho_Al = 2897.7, Cp_inlet = 847.6, k_inlet = 151.5, sigma_inlet = 3.5921E7, rho_inlet = 2517.5, Cp_outlet = 922.9, k_outlet = 165.7, sigma_outlet = 3.4788E7, rho_outlet = 2558.4, Cp_outlet_sleeve = 921.8, k_outlet_sleeve = 157.4, sigma_outlet_sleeve = 3.4643E7, rho_outlet_sleeve = 2486.6, Cp_inlet_sleeve = 910.4, k_inlet_sleeve = 155, sigma_inlet_sleeve = 3.9997E7, rho_inlet_sleeve = 2883.1) (degC), Point: 275
0                        21.593468838191598       21.012058893447715       21.132946524621502       21.008359319835165       21.012573478980357       21.108176778736777       21.008903721389004       21.02350110586906        21.00131908663326        21.024567937593417       21.001252892342734       21.000655517453026       21.009505915664363       21.000104511681513       21.006957507385266       21.01946781663827        21.00005296268216        21.0116497768131         21.000699558803376       21.00028073715464        21.001779189827914       21.000165356369223       21.000244161334194       21.008908248851014       21.11867522562852        21.0120710633347         21.498519322363734       21.008266958840125       21.145955125702812       21.01501319741999        21.66029704615312
3                        300.5050033103629        265.52159439314653       274.5505472877019        269.65540275508056       258.1402154590836        271.746938316395         270.3683107307294        257.49330777263185       252.49682459970404       264.33042775693355       266.66484830493744       258.19953216657234       255.24133633802808       241.6164265033069        246.68795540114672       233.08297081045185       228.57211209043726       237.4931261070874        238.90740963934104       232.64312800321528       231.74805985268347       225.1849624953967        227.8863904097525        272.4755896677891        274.28865856619257       259.80452063996074       293.7904695759926        271.4507989365155        276.6328377509237        265.0923342287073        305.10773098798506
6                        423.03149519369447       386.5383065383155        399.12931655808256       394.88252144220473       381.2377988335902        399.7461465340456        399.39668889434347       382.4987183532138        375.442619626401         392.22837807318604       395.59699401797275       387.117091933103         383.12848493047807       364.5422610921647        371.6657800165334        354.5160207570069        348.4294085313925        361.0797072214872        363.1736507290394        356.76909970562474       355.25118633376553       345.1269461227022        349.3503608353916        401.30692081300924       402.06475521867117       382.5769318259578        418.64012725742396       394.48337990080324       399.00437531263526       383.6825935329073        425.3109087311516
9                        495.6026147243332        458.1815507022544        473.44679470551534       469.9145826975707        450.43332311593383       472.2194493194098        472.76924006016554       452.7638862099709        444.5443301955886        464.6442464119583        468.9156895600636        460.43021497141535       455.53976642587475       433.63510174633643       441.9132029962474        426.26220914466046       419.2032068971977        434.651260991866         437.48764330938127       431.1909175649199        428.96178730496763       416.13387110143753       421.29924441861647       474.57541121195493       474.4105524459511        451.5745937981227        488.8107045726192        468.1619479897944        471.94264222487175       453.76473280222456       496.3962965939006
12                       544.882498029227         506.82998132285          524.0971645418023        521.1698662582675        495.59578619760055       519.6402790729113        520.8796693912699        498.5965134565355        489.64676820911325       512.0298119693059        516.9933139556927        508.50612514682723       502.92352790099255       478.7320804700379        487.7336390762714        475.04910188112535       467.32803607631945       484.8654584562055        488.3282366378629        482.10652019274903       479.264633145022         464.39461217345206       470.20425506216645       522.6257007500137        521.7529786387779        496.6104949954009        534.5825060228336        518.6483107311813        521.7938067621764        501.46658282346914       544.7842294512822
15                       582.4310652640655        543.9058864403153        562.7534226453911        560.3322857406233        529.2513062584334        554.9572602753601        556.7303726374093        532.7204168370628        523.2604691366319        547.3227477122011        552.821785410064         544.3365710531982        538.2181495312533        512.344812407721         521.851386264072         512.2754104825605        504.05990799042274       523.2415504804893        527.2271933650826        521.0865045384222        517.726669219594         501.2353914242899        507.52878433884155       558.4395226412541        557.0188935819839        530.1806051657036        568.6664870205528        557.3557571000822        559.9657636434038        537.9385761809223        581.7699868710914
18                       612.3210366070556        573.4297951136872        593.5607623555544        591.5703497735855        555.5676821849219        582.5333433738095        584.729565968857         559.3753256508319        549.5475629669056        574.8824684790494        580.8059507834503        572.324264967937         565.780994675406         538.6329913297468        548.5032723277072        541.9510173159532        533.3536700920482        553.8664898344148        558.2961447782216        552.2386865181711        548.4349205761981        530.6215439747737        537.2903581444546        586.4166666295304        584.5617083666987        556.4388808928665        595.2948788687456        588.3332974105716        590.4853691894266        567.0769363095427        611.3057753433662
21                       637.5901561361441        598.4006837676915        619.6118521261177        617.9947627968282        577.6087166619346        605.5806018558196        608.1252538493354        581.6779230431764        571.5673338982106        597.9181899075782        604.1911012778562        595.7134384239931        588.8203050600675        560.6547082863332        570.8044308157444        567.0696993928544        558.1622328707172        579.7922702647713        584.6060822895934        578.6290576705379        574.4390521045342        555.5108671874689        562.4856232564625        609.7990089489134        607.5864788932379        578.4388401033799        617.5791031694467        614.6056900107541        616.3600812984843        591.7907052032989        636.3423004613109
24                       659.9099819674741        620.46890761811          642.61053748676          641.3207002522975        597.0270994934045        625.8363534615278        628.6768469027045        601.3094023885072        590.9698036774519        618.1655642386602        624.735075382345         616.261467468685         609.071312222193         580.0594480971655        590.4353000865185        589.279124882367         580.1108315384843        602.7007807543598        607.8508096846726        601.948467630044         597.4193464719572        577.5306615743788        584.7632658113819        630.342576178649         627.8265714681452        597.8272637312215        637.1974060664537        637.8415834445348        639.2473845132251        613.6805530663455        658.5032541143813
27                       680.2089098284749        640.5512629909101        663.5042185188248        662.5026392563337        614.7300787420551        644.2551702874509        647.3518683492075        619.1922399689565        608.660593145645         636.5781605564838        643.40445677955          634.9347211172299        627.4873886561961        597.752567691121         608.3179654066704        609.494114653936         600.1019307517978        623.5270716430315        628.97284966728          623.1383595090456        618.3104230265155        597.5847507467031        605.0389430760155        649.0129291956757        646.2342386725331        615.5078584050231        655.0705352634535        658.9700042319932        660.069072416146         633.6350938172587        678.6900769983811
