% Model:              brazing.mph
% Version:            COMSOL 5.3.0.223
% Date:               Oct 24 2018, 06:20
% Table:              Table 3 - 
% Time (s)               Temperature (Cp_Al = 617.58, k_Al = 105.8, sigma_Al = 4.9246E7, rho_Al = 3026, Cp_inlet = 1021.8, k_inlet = 184.67, sigma_inlet = 2.6443E7, rho_inlet = 1500.5, Cp_outlet = 827.32, k_outlet = 98.11, sigma_outlet = 4.8271E7, rho_outlet = 2529.1, Cp_outlet_sleeve = 636.66, k_outlet_sleeve = 181.77, sigma_outlet_sleeve = 2.898E7, rho_outlet_sleeve = 2604.2, Cp_inlet_sleeve = 848.71, k_inlet_sleeve = 160.35, sigma_inlet_sleeve = 4.7097E7, rho_inlet_sleeve = 2333.7) (degC), Point: 55Temperature (Cp_Al = 617.58, k_Al = 105.8, sigma_Al = 4.9246E7, rho_Al = 3026, Cp_inlet = 1021.8, k_inlet = 184.67, sigma_inlet = 2.6443E7, rho_inlet = 1500.5, Cp_outlet = 827.32, k_outlet = 98.11, sigma_outlet = 4.8271E7, rho_outlet = 2529.1, Cp_outlet_sleeve = 636.66, k_outlet_sleeve = 181.77, sigma_outlet_sleeve = 2.898E7, rho_outlet_sleeve = 2604.2, Cp_inlet_sleeve = 848.71, k_inlet_sleeve = 160.35, sigma_inlet_sleeve = 4.7097E7, rho_inlet_sleeve = 2333.7) (degC), Point: 56Temperature (Cp_Al = 617.58, k_Al = 105.8, sigma_Al = 4.9246E7, rho_Al = 3026, Cp_inlet = 1021.8, k_inlet = 184.67, sigma_inlet = 2.6443E7, rho_inlet = 1500.5, Cp_outlet = 827.32, k_outlet = 98.11, sigma_outlet = 4.8271E7, rho_outlet = 2529.1, Cp_outlet_sleeve = 636.66, k_outlet_sleeve = 181.77, sigma_outlet_sleeve = 2.898E7, rho_outlet_sleeve = 2604.2, Cp_inlet_sleeve = 848.71, k_inlet_sleeve = 160.35, sigma_inlet_sleeve = 4.7097E7, rho_inlet_sleeve = 2333.7) (degC), Point: 60Temperature (Cp_Al = 617.58, k_Al = 105.8, sigma_Al = 4.9246E7, rho_Al = 3026, Cp_inlet = 1021.8, k_inlet = 184.67, sigma_inlet = 2.6443E7, rho_inlet = 1500.5, Cp_outlet = 827.32, k_outlet = 98.11, sigma_outlet = 4.8271E7, rho_outlet = 2529.1, Cp_outlet_sleeve = 636.66, k_outlet_sleeve = 181.77, sigma_outlet_sleeve = 2.898E7, rho_outlet_sleeve = 2604.2, Cp_inlet_sleeve = 848.71, k_inlet_sleeve = 160.35, sigma_inlet_sleeve = 4.7097E7, rho_inlet_sleeve = 2333.7) (degC), Point: 69Temperature (Cp_Al = 617.58, k_Al = 105.8, sigma_Al = 4.9246E7, rho_Al = 3026, Cp_inlet = 1021.8, k_inlet = 184.67, sigma_inlet = 2.6443E7, rho_inlet = 1500.5, Cp_outlet = 827.32, k_outlet = 98.11, sigma_outlet = 4.8271E7, rho_outlet = 2529.1, Cp_outlet_sleeve = 636.66, k_outlet_sleeve = 181.77, sigma_outlet_sleeve = 2.898E7, rho_outlet_sleeve = 2604.2, Cp_inlet_sleeve = 848.71, k_inlet_sleeve = 160.35, sigma_inlet_sleeve = 4.7097E7, rho_inlet_sleeve = 2333.7) (degC), Point: 90Temperature (Cp_Al = 617.58, k_Al = 105.8, sigma_Al = 4.9246E7, rho_Al = 3026, Cp_inlet = 1021.8, k_inlet = 184.67, sigma_inlet = 2.6443E7, rho_inlet = 1500.5, Cp_outlet = 827.32, k_outlet = 98.11, sigma_outlet = 4.8271E7, rho_outlet = 2529.1, Cp_outlet_sleeve = 636.66, k_outlet_sleeve = 181.77, sigma_outlet_sleeve = 2.898E7, rho_outlet_sleeve = 2604.2, Cp_inlet_sleeve = 848.71, k_inlet_sleeve = 160.35, sigma_inlet_sleeve = 4.7097E7, rho_inlet_sleeve = 2333.7) (degC), Point: 98Temperature (Cp_Al = 617.58, k_Al = 105.8, sigma_Al = 4.9246E7, rho_Al = 3026, Cp_inlet = 1021.8, k_inlet = 184.67, sigma_inlet = 2.6443E7, rho_inlet = 1500.5, Cp_outlet = 827.32, k_outlet = 98.11, sigma_outlet = 4.8271E7, rho_outlet = 2529.1, Cp_outlet_sleeve = 636.66, k_outlet_sleeve = 181.77, sigma_outlet_sleeve = 2.898E7, rho_outlet_sleeve = 2604.2, Cp_inlet_sleeve = 848.71, k_inlet_sleeve = 160.35, sigma_inlet_sleeve = 4.7097E7, rho_inlet_sleeve = 2333.7) (degC), Point: 102Temperature (Cp_Al = 617.58, k_Al = 105.8, sigma_Al = 4.9246E7, rho_Al = 3026, Cp_inlet = 1021.8, k_inlet = 184.67, sigma_inlet = 2.6443E7, rho_inlet = 1500.5, Cp_outlet = 827.32, k_outlet = 98.11, sigma_outlet = 4.8271E7, rho_outlet = 2529.1, Cp_outlet_sleeve = 636.66, k_outlet_sleeve = 181.77, sigma_outlet_sleeve = 2.898E7, rho_outlet_sleeve = 2604.2, Cp_inlet_sleeve = 848.71, k_inlet_sleeve = 160.35, sigma_inlet_sleeve = 4.7097E7, rho_inlet_sleeve = 2333.7) (degC), Point: 127Temperature (Cp_Al = 617.58, k_Al = 105.8, sigma_Al = 4.9246E7, rho_Al = 3026, Cp_inlet = 1021.8, k_inlet = 184.67, sigma_inlet = 2.6443E7, rho_inlet = 1500.5, Cp_outlet = 827.32, k_outlet = 98.11, sigma_outlet = 4.8271E7, rho_outlet = 2529.1, Cp_outlet_sleeve = 636.66, k_outlet_sleeve = 181.77, sigma_outlet_sleeve = 2.898E7, rho_outlet_sleeve = 2604.2, Cp_inlet_sleeve = 848.71, k_inlet_sleeve = 160.35, sigma_inlet_sleeve = 4.7097E7, rho_inlet_sleeve = 2333.7) (degC), Point: 128Temperature (Cp_Al = 617.58, k_Al = 105.8, sigma_Al = 4.9246E7, rho_Al = 3026, Cp_inlet = 1021.8, k_inlet = 184.67, sigma_inlet = 2.6443E7, rho_inlet = 1500.5, Cp_outlet = 827.32, k_outlet = 98.11, sigma_outlet = 4.8271E7, rho_outlet = 2529.1, Cp_outlet_sleeve = 636.66, k_outlet_sleeve = 181.77, sigma_outlet_sleeve = 2.898E7, rho_outlet_sleeve = 2604.2, Cp_inlet_sleeve = 848.71, k_inlet_sleeve = 160.35, sigma_inlet_sleeve = 4.7097E7, rho_inlet_sleeve = 2333.7) (degC), Point: 134Temperature (Cp_Al = 617.58, k_Al = 105.8, sigma_Al = 4.9246E7, rho_Al = 3026, Cp_inlet = 1021.8, k_inlet = 184.67, sigma_inlet = 2.6443E7, rho_inlet = 1500.5, Cp_outlet = 827.32, k_outlet = 98.11, sigma_outlet = 4.8271E7, rho_outlet = 2529.1, Cp_outlet_sleeve = 636.66, k_outlet_sleeve = 181.77, sigma_outlet_sleeve = 2.898E7, rho_outlet_sleeve = 2604.2, Cp_inlet_sleeve = 848.71, k_inlet_sleeve = 160.35, sigma_inlet_sleeve = 4.7097E7, rho_inlet_sleeve = 2333.7) (degC), Point: 138Temperature (Cp_Al = 617.58, k_Al = 105.8, sigma_Al = 4.9246E7, rho_Al = 3026, Cp_inlet = 1021.8, k_inlet = 184.67, sigma_inlet = 2.6443E7, rho_inlet = 1500.5, Cp_outlet = 827.32, k_outlet = 98.11, sigma_outlet = 4.8271E7, rho_outlet = 2529.1, Cp_outlet_sleeve = 636.66, k_outlet_sleeve = 181.77, sigma_outlet_sleeve = 2.898E7, rho_outlet_sleeve = 2604.2, Cp_inlet_sleeve = 848.71, k_inlet_sleeve = 160.35, sigma_inlet_sleeve = 4.7097E7, rho_inlet_sleeve = 2333.7) (degC), Point: 151Temperature (Cp_Al = 617.58, k_Al = 105.8, sigma_Al = 4.9246E7, rho_Al = 3026, Cp_inlet = 1021.8, k_inlet = 184.67, sigma_inlet = 2.6443E7, rho_inlet = 1500.5, Cp_outlet = 827.32, k_outlet = 98.11, sigma_outlet = 4.8271E7, rho_outlet = 2529.1, Cp_outlet_sleeve = 636.66, k_outlet_sleeve = 181.77, sigma_outlet_sleeve = 2.898E7, rho_outlet_sleeve = 2604.2, Cp_inlet_sleeve = 848.71, k_inlet_sleeve = 160.35, sigma_inlet_sleeve = 4.7097E7, rho_inlet_sleeve = 2333.7) (degC), Point: 154Temperature (Cp_Al = 617.58, k_Al = 105.8, sigma_Al = 4.9246E7, rho_Al = 3026, Cp_inlet = 1021.8, k_inlet = 184.67, sigma_inlet = 2.6443E7, rho_inlet = 1500.5, Cp_outlet = 827.32, k_outlet = 98.11, sigma_outlet = 4.8271E7, rho_outlet = 2529.1, Cp_outlet_sleeve = 636.66, k_outlet_sleeve = 181.77, sigma_outlet_sleeve = 2.898E7, rho_outlet_sleeve = 2604.2, Cp_inlet_sleeve = 848.71, k_inlet_sleeve = 160.35, sigma_inlet_sleeve = 4.7097E7, rho_inlet_sleeve = 2333.7) (degC), Point: 159Temperature (Cp_Al = 617.58, k_Al = 105.8, sigma_Al = 4.9246E7, rho_Al = 3026, Cp_inlet = 1021.8, k_inlet = 184.67, sigma_inlet = 2.6443E7, rho_inlet = 1500.5, Cp_outlet = 827.32, k_outlet = 98.11, sigma_outlet = 4.8271E7, rho_outlet = 2529.1, Cp_outlet_sleeve = 636.66, k_outlet_sleeve = 181.77, sigma_outlet_sleeve = 2.898E7, rho_outlet_sleeve = 2604.2, Cp_inlet_sleeve = 848.71, k_inlet_sleeve = 160.35, sigma_inlet_sleeve = 4.7097E7, rho_inlet_sleeve = 2333.7) (degC), Point: 163Temperature (Cp_Al = 617.58, k_Al = 105.8, sigma_Al = 4.9246E7, rho_Al = 3026, Cp_inlet = 1021.8, k_inlet = 184.67, sigma_inlet = 2.6443E7, rho_inlet = 1500.5, Cp_outlet = 827.32, k_outlet = 98.11, sigma_outlet = 4.8271E7, rho_outlet = 2529.1, Cp_outlet_sleeve = 636.66, k_outlet_sleeve = 181.77, sigma_outlet_sleeve = 2.898E7, rho_outlet_sleeve = 2604.2, Cp_inlet_sleeve = 848.71, k_inlet_sleeve = 160.35, sigma_inlet_sleeve = 4.7097E7, rho_inlet_sleeve = 2333.7) (degC), Point: 167Temperature (Cp_Al = 617.58, k_Al = 105.8, sigma_Al = 4.9246E7, rho_Al = 3026, Cp_inlet = 1021.8, k_inlet = 184.67, sigma_inlet = 2.6443E7, rho_inlet = 1500.5, Cp_outlet = 827.32, k_outlet = 98.11, sigma_outlet = 4.8271E7, rho_outlet = 2529.1, Cp_outlet_sleeve = 636.66, k_outlet_sleeve = 181.77, sigma_outlet_sleeve = 2.898E7, rho_outlet_sleeve = 2604.2, Cp_inlet_sleeve = 848.71, k_inlet_sleeve = 160.35, sigma_inlet_sleeve = 4.7097E7, rho_inlet_sleeve = 2333.7) (degC), Point: 168Temperature (Cp_Al = 617.58, k_Al = 105.8, sigma_Al = 4.9246E7, rho_Al = 3026, Cp_inlet = 1021.8, k_inlet = 184.67, sigma_inlet = 2.6443E7, rho_inlet = 1500.5, Cp_outlet = 827.32, k_outlet = 98.11, sigma_outlet = 4.8271E7, rho_outlet = 2529.1, Cp_outlet_sleeve = 636.66, k_outlet_sleeve = 181.77, sigma_outlet_sleeve = 2.898E7, rho_outlet_sleeve = 2604.2, Cp_inlet_sleeve = 848.71, k_inlet_sleeve = 160.35, sigma_inlet_sleeve = 4.7097E7, rho_inlet_sleeve = 2333.7) (degC), Point: 172Temperature (Cp_Al = 617.58, k_Al = 105.8, sigma_Al = 4.9246E7, rho_Al = 3026, Cp_inlet = 1021.8, k_inlet = 184.67, sigma_inlet = 2.6443E7, rho_inlet = 1500.5, Cp_outlet = 827.32, k_outlet = 98.11, sigma_outlet = 4.8271E7, rho_outlet = 2529.1, Cp_outlet_sleeve = 636.66, k_outlet_sleeve = 181.77, sigma_outlet_sleeve = 2.898E7, rho_outlet_sleeve = 2604.2, Cp_inlet_sleeve = 848.71, k_inlet_sleeve = 160.35, sigma_inlet_sleeve = 4.7097E7, rho_inlet_sleeve = 2333.7) (degC), Point: 181Temperature (Cp_Al = 617.58, k_Al = 105.8, sigma_Al = 4.9246E7, rho_Al = 3026, Cp_inlet = 1021.8, k_inlet = 184.67, sigma_inlet = 2.6443E7, rho_inlet = 1500.5, Cp_outlet = 827.32, k_outlet = 98.11, sigma_outlet = 4.8271E7, rho_outlet = 2529.1, Cp_outlet_sleeve = 636.66, k_outlet_sleeve = 181.77, sigma_outlet_sleeve = 2.898E7, rho_outlet_sleeve = 2604.2, Cp_inlet_sleeve = 848.71, k_inlet_sleeve = 160.35, sigma_inlet_sleeve = 4.7097E7, rho_inlet_sleeve = 2333.7) (degC), Point: 201Temperature (Cp_Al = 617.58, k_Al = 105.8, sigma_Al = 4.9246E7, rho_Al = 3026, Cp_inlet = 1021.8, k_inlet = 184.67, sigma_inlet = 2.6443E7, rho_inlet = 1500.5, Cp_outlet = 827.32, k_outlet = 98.11, sigma_outlet = 4.8271E7, rho_outlet = 2529.1, Cp_outlet_sleeve = 636.66, k_outlet_sleeve = 181.77, sigma_outlet_sleeve = 2.898E7, rho_outlet_sleeve = 2604.2, Cp_inlet_sleeve = 848.71, k_inlet_sleeve = 160.35, sigma_inlet_sleeve = 4.7097E7, rho_inlet_sleeve = 2333.7) (degC), Point: 210Temperature (Cp_Al = 617.58, k_Al = 105.8, sigma_Al = 4.9246E7, rho_Al = 3026, Cp_inlet = 1021.8, k_inlet = 184.67, sigma_inlet = 2.6443E7, rho_inlet = 1500.5, Cp_outlet = 827.32, k_outlet = 98.11, sigma_outlet = 4.8271E7, rho_outlet = 2529.1, Cp_outlet_sleeve = 636.66, k_outlet_sleeve = 181.77, sigma_outlet_sleeve = 2.898E7, rho_outlet_sleeve = 2604.2, Cp_inlet_sleeve = 848.71, k_inlet_sleeve = 160.35, sigma_inlet_sleeve = 4.7097E7, rho_inlet_sleeve = 2333.7) (degC), Point: 213Temperature (Cp_Al = 617.58, k_Al = 105.8, sigma_Al = 4.9246E7, rho_Al = 3026, Cp_inlet = 1021.8, k_inlet = 184.67, sigma_inlet = 2.6443E7, rho_inlet = 1500.5, Cp_outlet = 827.32, k_outlet = 98.11, sigma_outlet = 4.8271E7, rho_outlet = 2529.1, Cp_outlet_sleeve = 636.66, k_outlet_sleeve = 181.77, sigma_outlet_sleeve = 2.898E7, rho_outlet_sleeve = 2604.2, Cp_inlet_sleeve = 848.71, k_inlet_sleeve = 160.35, sigma_inlet_sleeve = 4.7097E7, rho_inlet_sleeve = 2333.7) (degC), Point: 215Temperature (Cp_Al = 617.58, k_Al = 105.8, sigma_Al = 4.9246E7, rho_Al = 3026, Cp_inlet = 1021.8, k_inlet = 184.67, sigma_inlet = 2.6443E7, rho_inlet = 1500.5, Cp_outlet = 827.32, k_outlet = 98.11, sigma_outlet = 4.8271E7, rho_outlet = 2529.1, Cp_outlet_sleeve = 636.66, k_outlet_sleeve = 181.77, sigma_outlet_sleeve = 2.898E7, rho_outlet_sleeve = 2604.2, Cp_inlet_sleeve = 848.71, k_inlet_sleeve = 160.35, sigma_inlet_sleeve = 4.7097E7, rho_inlet_sleeve = 2333.7) (degC), Point: 229Temperature (Cp_Al = 617.58, k_Al = 105.8, sigma_Al = 4.9246E7, rho_Al = 3026, Cp_inlet = 1021.8, k_inlet = 184.67, sigma_inlet = 2.6443E7, rho_inlet = 1500.5, Cp_outlet = 827.32, k_outlet = 98.11, sigma_outlet = 4.8271E7, rho_outlet = 2529.1, Cp_outlet_sleeve = 636.66, k_outlet_sleeve = 181.77, sigma_outlet_sleeve = 2.898E7, rho_outlet_sleeve = 2604.2, Cp_inlet_sleeve = 848.71, k_inlet_sleeve = 160.35, sigma_inlet_sleeve = 4.7097E7, rho_inlet_sleeve = 2333.7) (degC), Point: 232Temperature (Cp_Al = 617.58, k_Al = 105.8, sigma_Al = 4.9246E7, rho_Al = 3026, Cp_inlet = 1021.8, k_inlet = 184.67, sigma_inlet = 2.6443E7, rho_inlet = 1500.5, Cp_outlet = 827.32, k_outlet = 98.11, sigma_outlet = 4.8271E7, rho_outlet = 2529.1, Cp_outlet_sleeve = 636.66, k_outlet_sleeve = 181.77, sigma_outlet_sleeve = 2.898E7, rho_outlet_sleeve = 2604.2, Cp_inlet_sleeve = 848.71, k_inlet_sleeve = 160.35, sigma_inlet_sleeve = 4.7097E7, rho_inlet_sleeve = 2333.7) (degC), Point: 239Temperature (Cp_Al = 617.58, k_Al = 105.8, sigma_Al = 4.9246E7, rho_Al = 3026, Cp_inlet = 1021.8, k_inlet = 184.67, sigma_inlet = 2.6443E7, rho_inlet = 1500.5, Cp_outlet = 827.32, k_outlet = 98.11, sigma_outlet = 4.8271E7, rho_outlet = 2529.1, Cp_outlet_sleeve = 636.66, k_outlet_sleeve = 181.77, sigma_outlet_sleeve = 2.898E7, rho_outlet_sleeve = 2604.2, Cp_inlet_sleeve = 848.71, k_inlet_sleeve = 160.35, sigma_inlet_sleeve = 4.7097E7, rho_inlet_sleeve = 2333.7) (degC), Point: 252Temperature (Cp_Al = 617.58, k_Al = 105.8, sigma_Al = 4.9246E7, rho_Al = 3026, Cp_inlet = 1021.8, k_inlet = 184.67, sigma_inlet = 2.6443E7, rho_inlet = 1500.5, Cp_outlet = 827.32, k_outlet = 98.11, sigma_outlet = 4.8271E7, rho_outlet = 2529.1, Cp_outlet_sleeve = 636.66, k_outlet_sleeve = 181.77, sigma_outlet_sleeve = 2.898E7, rho_outlet_sleeve = 2604.2, Cp_inlet_sleeve = 848.71, k_inlet_sleeve = 160.35, sigma_inlet_sleeve = 4.7097E7, rho_inlet_sleeve = 2333.7) (degC), Point: 261Temperature (Cp_Al = 617.58, k_Al = 105.8, sigma_Al = 4.9246E7, rho_Al = 3026, Cp_inlet = 1021.8, k_inlet = 184.67, sigma_inlet = 2.6443E7, rho_inlet = 1500.5, Cp_outlet = 827.32, k_outlet = 98.11, sigma_outlet = 4.8271E7, rho_outlet = 2529.1, Cp_outlet_sleeve = 636.66, k_outlet_sleeve = 181.77, sigma_outlet_sleeve = 2.898E7, rho_outlet_sleeve = 2604.2, Cp_inlet_sleeve = 848.71, k_inlet_sleeve = 160.35, sigma_inlet_sleeve = 4.7097E7, rho_inlet_sleeve = 2333.7) (degC), Point: 270Temperature (Cp_Al = 617.58, k_Al = 105.8, sigma_Al = 4.9246E7, rho_Al = 3026, Cp_inlet = 1021.8, k_inlet = 184.67, sigma_inlet = 2.6443E7, rho_inlet = 1500.5, Cp_outlet = 827.32, k_outlet = 98.11, sigma_outlet = 4.8271E7, rho_outlet = 2529.1, Cp_outlet_sleeve = 636.66, k_outlet_sleeve = 181.77, sigma_outlet_sleeve = 2.898E7, rho_outlet_sleeve = 2604.2, Cp_inlet_sleeve = 848.71, k_inlet_sleeve = 160.35, sigma_inlet_sleeve = 4.7097E7, rho_inlet_sleeve = 2333.7) (degC), Point: 273Temperature (Cp_Al = 617.58, k_Al = 105.8, sigma_Al = 4.9246E7, rho_Al = 3026, Cp_inlet = 1021.8, k_inlet = 184.67, sigma_inlet = 2.6443E7, rho_inlet = 1500.5, Cp_outlet = 827.32, k_outlet = 98.11, sigma_outlet = 4.8271E7, rho_outlet = 2529.1, Cp_outlet_sleeve = 636.66, k_outlet_sleeve = 181.77, sigma_outlet_sleeve = 2.898E7, rho_outlet_sleeve = 2604.2, Cp_inlet_sleeve = 848.71, k_inlet_sleeve = 160.35, sigma_inlet_sleeve = 4.7097E7, rho_inlet_sleeve = 2333.7) (degC), Point: 275
0                        21.72563784040142        21.017750984524014       21.13173065983659        21.00853083421822        21.015995401358907       21.109279778222117       21.010975561453336       21.033776335611776       21.00163648578075        21.02492435609497        21.001508115321883       21.000755590751908       21.009520928326936       21.00012175612744        21.00998374214197        21.024126600972238       21.00005743181441        21.01160171078385        21.000750089023597       21.000317354234596       21.00180598424879        21.00020545236964        21.00031190491086        21.010968602395508       21.119835687999398       21.01531256473686        21.69600440871841        21.008360586860533       21.1445244834199         21.020687013856787       21.80682847102122
3                        341.0521179973804        311.3738096416615        321.949969079011         317.7519323563869        306.14443853089165       321.49177621424997       320.7107479136796        306.4224290420734        300.78888874213146       314.3794727325667        317.4193727901179        310.0084411609424        306.32802564302835       291.2752998188827        296.77351988574503       273.2793311996978        268.91552696302733       276.86571888650406       277.94915483836724       271.3554086601241        271.11330547272735       266.03911951045234       268.78039838197355       322.44722854751524       323.6678484483426        307.476141603281         341.74189474071875       319.14112336764015       323.41123201454707       309.56281303377125       343.8442197798594
6                        476.7542253774426        445.48175872615275       460.80528263777046       457.6966788369334        439.57347666245516       459.54211281669984       459.725559577053         441.5051411071123        434.05757334117925       452.3311880445643        456.34377998172306       448.9075641196828        444.2553434160018        424.5048980927413        431.8099006534918        407.1938770081546        401.141799007519         414.0874757440057        416.3116037362447        409.87248030624164       408.566697016313         398.72123564313074       403.0809243235018        461.26353131226404       461.48717821741286       440.54288037214405       476.64591939163586       455.9102839143861        459.0668447076906        440.1593231577373        476.1820445753485
9                        556.3715001455039        524.2152344302295        542.5517424822691        540.3454043051548        514.710092839507         537.6037230049938        538.5998864054683        517.5108645439817        509.0901787394896        530.33208637391          535.1632743009875        527.7229451441065        522.2516910982745        499.5269127846068        507.79713620102007       485.6054471096985        478.6149587903128        494.71131154830323       497.8655017667371        491.61392458109776       489.41803203582435       476.5347898526329        481.79702014522263       540.0310427236649        539.4156171588329        515.4590932759901        552.5481993106929        536.5218945631921        538.7593522741371        516.6431615626547        553.6418614123646
12                       612.0124252867097        579.2760997196307        599.7034581762124        598.1785821997221        567.304215811407         592.2998225285257        593.9397958839096        570.6835917262079        561.6162185799241        584.9893965196023        590.4684049190073        583.0300303539145        576.9102258898206        552.0496969640132        560.9605850662855        540.512432635484         532.9055968569656        551.1876929425221        555.0442069169942        548.8832381299402        546.0077342987998        531.0054943964811        536.8621108467785        595.3090196174862        594.0298394353974        567.9125316137978        605.6563130130372        593.112654876143         594.64895170877          570.2974258993886        607.9389873419703
15                       653.1183190865493        619.9896085646059        641.9035478316699        640.8962791853019        606.891613168048         633.4841227420306        635.648905543987         610.6856123999586        601.1589220430402        626.1490131002354        632.1555436277421        624.7209354872833        618.0727156573702        591.5913631660724        600.9569427348916        581.1621813897674        573.1388693174151        592.9726398017091        597.3621906767803        591.2677594184375        587.8697575975879        571.3496177113735        577.610435052092         636.9826649520035        635.1632518105612        607.4085955351366        645.6166531460499        635.0823884502868        636.0801866712072        610.1308687933137        648.2089811157997
18                       685.8519731577898        652.4418134448761        675.4638757735738        674.8604166007552        639.3025713902905        667.1788087357586        669.7826001232587        643.4194852728165        633.5394300897171        659.827420485782         666.274835535708         658.8439136539847        651.7538786897912        623.9709393523751        633.6862668962798        613.5977754182135        605.276378311037         626.2647792124557        631.0699871807383        625.0336171967994        621.2235068743635        603.5633385182091        610.1156527502199        671.095223710522         668.8245194840675        639.7570450410138        678.3216916325204        668.5820437762685        669.1553583091452        642.008635652634         680.4008205544125
21                       713.7075922375094        680.0821733266855        703.975536143291         703.6992112222639        667.5360095569835        696.4777953572149        699.4528401470737        671.9177156100899        661.7511742355116        689.1151549492579        695.9351633035315        688.5072955651366        681.0437804896505        652.1813893326449        662.1803184668579        641.2478535303508        632.6991428829311        654.5937182681524        659.7355378465878        653.7500054553818        649.6032584305417        631.0415107257907        637.8176266049653        700.7520789440154        698.100139957095         667.9452804079507        706.7986251713428        697.1183343631061        697.3450495872935        669.2534439246306        707.8860117986072
24                       738.4348040490554        704.637306385783         729.2424588702015        729.239241094002         692.9365556561575        722.7689744566051        726.0572862458031        697.5385746349816        687.1358769620931        715.3983520487797        722.5326031326797        715.1071770898867        707.3286169962951        677.5645937993261        687.7973477360456        665.8290622993233        657.0992952610255        679.7325336944886        685.1551986817736        679.2141850330112        674.7847459234058        655.4836455652581        662.4390234931145        727.347817589224         724.3744543563166        693.312233851379         732.4032868655994        722.4572411364256        722.3930912883499        693.5285151769974        732.3528957999107
27                       761.039314590665         727.0996996423141        752.3030053383051        752.5330247490734        716.2372135213257        746.8124630254204        750.3634847139659        721.0225355221559        710.4247522030942        739.4360672071904        746.833750835906         739.4103055415402        731.3676144551056        700.8520178586386        711.2779492628457        688.3274873938824        679.4487808667122        702.7012777314532        708.3635752616351        702.4620939447673        697.7903245462751        677.8666347420075        684.9701000081346        751.6482982573253        748.4055572571344        716.5875522472979        755.874785595746         745.616171353684         745.3029166217266        715.7891433102205        754.7713208793031
