% Model:              brazing.mph
% Version:            COMSOL 5.3.0.223
% Date:               Oct 24 2018, 05:28
% Table:              Table 3 - 
% Time (s)               Temperature (Cp_Al = 632.19, k_Al = 115.18, sigma_Al = 4.3686E7, rho_Al = 2982.3, Cp_inlet = 1056.7, k_inlet = 176.7, sigma_inlet = 2.9847E7, rho_inlet = 1700.7, Cp_outlet = 800.93, k_outlet = 113.58, sigma_outlet = 4.3506E7, rho_outlet = 2719.6, Cp_outlet_sleeve = 731.21, k_outlet_sleeve = 179.55, sigma_outlet_sleeve = 3.0304E7, rho_outlet_sleeve = 2415.9, Cp_inlet_sleeve = 837.95, k_inlet_sleeve = 170.03, sigma_inlet_sleeve = 4.3637E7, rho_inlet_sleeve = 2287.5) (degC), Point: 55Temperature (Cp_Al = 632.19, k_Al = 115.18, sigma_Al = 4.3686E7, rho_Al = 2982.3, Cp_inlet = 1056.7, k_inlet = 176.7, sigma_inlet = 2.9847E7, rho_inlet = 1700.7, Cp_outlet = 800.93, k_outlet = 113.58, sigma_outlet = 4.3506E7, rho_outlet = 2719.6, Cp_outlet_sleeve = 731.21, k_outlet_sleeve = 179.55, sigma_outlet_sleeve = 3.0304E7, rho_outlet_sleeve = 2415.9, Cp_inlet_sleeve = 837.95, k_inlet_sleeve = 170.03, sigma_inlet_sleeve = 4.3637E7, rho_inlet_sleeve = 2287.5) (degC), Point: 56Temperature (Cp_Al = 632.19, k_Al = 115.18, sigma_Al = 4.3686E7, rho_Al = 2982.3, Cp_inlet = 1056.7, k_inlet = 176.7, sigma_inlet = 2.9847E7, rho_inlet = 1700.7, Cp_outlet = 800.93, k_outlet = 113.58, sigma_outlet = 4.3506E7, rho_outlet = 2719.6, Cp_outlet_sleeve = 731.21, k_outlet_sleeve = 179.55, sigma_outlet_sleeve = 3.0304E7, rho_outlet_sleeve = 2415.9, Cp_inlet_sleeve = 837.95, k_inlet_sleeve = 170.03, sigma_inlet_sleeve = 4.3637E7, rho_inlet_sleeve = 2287.5) (degC), Point: 60Temperature (Cp_Al = 632.19, k_Al = 115.18, sigma_Al = 4.3686E7, rho_Al = 2982.3, Cp_inlet = 1056.7, k_inlet = 176.7, sigma_inlet = 2.9847E7, rho_inlet = 1700.7, Cp_outlet = 800.93, k_outlet = 113.58, sigma_outlet = 4.3506E7, rho_outlet = 2719.6, Cp_outlet_sleeve = 731.21, k_outlet_sleeve = 179.55, sigma_outlet_sleeve = 3.0304E7, rho_outlet_sleeve = 2415.9, Cp_inlet_sleeve = 837.95, k_inlet_sleeve = 170.03, sigma_inlet_sleeve = 4.3637E7, rho_inlet_sleeve = 2287.5) (degC), Point: 69Temperature (Cp_Al = 632.19, k_Al = 115.18, sigma_Al = 4.3686E7, rho_Al = 2982.3, Cp_inlet = 1056.7, k_inlet = 176.7, sigma_inlet = 2.9847E7, rho_inlet = 1700.7, Cp_outlet = 800.93, k_outlet = 113.58, sigma_outlet = 4.3506E7, rho_outlet = 2719.6, Cp_outlet_sleeve = 731.21, k_outlet_sleeve = 179.55, sigma_outlet_sleeve = 3.0304E7, rho_outlet_sleeve = 2415.9, Cp_inlet_sleeve = 837.95, k_inlet_sleeve = 170.03, sigma_inlet_sleeve = 4.3637E7, rho_inlet_sleeve = 2287.5) (degC), Point: 90Temperature (Cp_Al = 632.19, k_Al = 115.18, sigma_Al = 4.3686E7, rho_Al = 2982.3, Cp_inlet = 1056.7, k_inlet = 176.7, sigma_inlet = 2.9847E7, rho_inlet = 1700.7, Cp_outlet = 800.93, k_outlet = 113.58, sigma_outlet = 4.3506E7, rho_outlet = 2719.6, Cp_outlet_sleeve = 731.21, k_outlet_sleeve = 179.55, sigma_outlet_sleeve = 3.0304E7, rho_outlet_sleeve = 2415.9, Cp_inlet_sleeve = 837.95, k_inlet_sleeve = 170.03, sigma_inlet_sleeve = 4.3637E7, rho_inlet_sleeve = 2287.5) (degC), Point: 98Temperature (Cp_Al = 632.19, k_Al = 115.18, sigma_Al = 4.3686E7, rho_Al = 2982.3, Cp_inlet = 1056.7, k_inlet = 176.7, sigma_inlet = 2.9847E7, rho_inlet = 1700.7, Cp_outlet = 800.93, k_outlet = 113.58, sigma_outlet = 4.3506E7, rho_outlet = 2719.6, Cp_outlet_sleeve = 731.21, k_outlet_sleeve = 179.55, sigma_outlet_sleeve = 3.0304E7, rho_outlet_sleeve = 2415.9, Cp_inlet_sleeve = 837.95, k_inlet_sleeve = 170.03, sigma_inlet_sleeve = 4.3637E7, rho_inlet_sleeve = 2287.5) (degC), Point: 102Temperature (Cp_Al = 632.19, k_Al = 115.18, sigma_Al = 4.3686E7, rho_Al = 2982.3, Cp_inlet = 1056.7, k_inlet = 176.7, sigma_inlet = 2.9847E7, rho_inlet = 1700.7, Cp_outlet = 800.93, k_outlet = 113.58, sigma_outlet = 4.3506E7, rho_outlet = 2719.6, Cp_outlet_sleeve = 731.21, k_outlet_sleeve = 179.55, sigma_outlet_sleeve = 3.0304E7, rho_outlet_sleeve = 2415.9, Cp_inlet_sleeve = 837.95, k_inlet_sleeve = 170.03, sigma_inlet_sleeve = 4.3637E7, rho_inlet_sleeve = 2287.5) (degC), Point: 127Temperature (Cp_Al = 632.19, k_Al = 115.18, sigma_Al = 4.3686E7, rho_Al = 2982.3, Cp_inlet = 1056.7, k_inlet = 176.7, sigma_inlet = 2.9847E7, rho_inlet = 1700.7, Cp_outlet = 800.93, k_outlet = 113.58, sigma_outlet = 4.3506E7, rho_outlet = 2719.6, Cp_outlet_sleeve = 731.21, k_outlet_sleeve = 179.55, sigma_outlet_sleeve = 3.0304E7, rho_outlet_sleeve = 2415.9, Cp_inlet_sleeve = 837.95, k_inlet_sleeve = 170.03, sigma_inlet_sleeve = 4.3637E7, rho_inlet_sleeve = 2287.5) (degC), Point: 128Temperature (Cp_Al = 632.19, k_Al = 115.18, sigma_Al = 4.3686E7, rho_Al = 2982.3, Cp_inlet = 1056.7, k_inlet = 176.7, sigma_inlet = 2.9847E7, rho_inlet = 1700.7, Cp_outlet = 800.93, k_outlet = 113.58, sigma_outlet = 4.3506E7, rho_outlet = 2719.6, Cp_outlet_sleeve = 731.21, k_outlet_sleeve = 179.55, sigma_outlet_sleeve = 3.0304E7, rho_outlet_sleeve = 2415.9, Cp_inlet_sleeve = 837.95, k_inlet_sleeve = 170.03, sigma_inlet_sleeve = 4.3637E7, rho_inlet_sleeve = 2287.5) (degC), Point: 134Temperature (Cp_Al = 632.19, k_Al = 115.18, sigma_Al = 4.3686E7, rho_Al = 2982.3, Cp_inlet = 1056.7, k_inlet = 176.7, sigma_inlet = 2.9847E7, rho_inlet = 1700.7, Cp_outlet = 800.93, k_outlet = 113.58, sigma_outlet = 4.3506E7, rho_outlet = 2719.6, Cp_outlet_sleeve = 731.21, k_outlet_sleeve = 179.55, sigma_outlet_sleeve = 3.0304E7, rho_outlet_sleeve = 2415.9, Cp_inlet_sleeve = 837.95, k_inlet_sleeve = 170.03, sigma_inlet_sleeve = 4.3637E7, rho_inlet_sleeve = 2287.5) (degC), Point: 138Temperature (Cp_Al = 632.19, k_Al = 115.18, sigma_Al = 4.3686E7, rho_Al = 2982.3, Cp_inlet = 1056.7, k_inlet = 176.7, sigma_inlet = 2.9847E7, rho_inlet = 1700.7, Cp_outlet = 800.93, k_outlet = 113.58, sigma_outlet = 4.3506E7, rho_outlet = 2719.6, Cp_outlet_sleeve = 731.21, k_outlet_sleeve = 179.55, sigma_outlet_sleeve = 3.0304E7, rho_outlet_sleeve = 2415.9, Cp_inlet_sleeve = 837.95, k_inlet_sleeve = 170.03, sigma_inlet_sleeve = 4.3637E7, rho_inlet_sleeve = 2287.5) (degC), Point: 151Temperature (Cp_Al = 632.19, k_Al = 115.18, sigma_Al = 4.3686E7, rho_Al = 2982.3, Cp_inlet = 1056.7, k_inlet = 176.7, sigma_inlet = 2.9847E7, rho_inlet = 1700.7, Cp_outlet = 800.93, k_outlet = 113.58, sigma_outlet = 4.3506E7, rho_outlet = 2719.6, Cp_outlet_sleeve = 731.21, k_outlet_sleeve = 179.55, sigma_outlet_sleeve = 3.0304E7, rho_outlet_sleeve = 2415.9, Cp_inlet_sleeve = 837.95, k_inlet_sleeve = 170.03, sigma_inlet_sleeve = 4.3637E7, rho_inlet_sleeve = 2287.5) (degC), Point: 154Temperature (Cp_Al = 632.19, k_Al = 115.18, sigma_Al = 4.3686E7, rho_Al = 2982.3, Cp_inlet = 1056.7, k_inlet = 176.7, sigma_inlet = 2.9847E7, rho_inlet = 1700.7, Cp_outlet = 800.93, k_outlet = 113.58, sigma_outlet = 4.3506E7, rho_outlet = 2719.6, Cp_outlet_sleeve = 731.21, k_outlet_sleeve = 179.55, sigma_outlet_sleeve = 3.0304E7, rho_outlet_sleeve = 2415.9, Cp_inlet_sleeve = 837.95, k_inlet_sleeve = 170.03, sigma_inlet_sleeve = 4.3637E7, rho_inlet_sleeve = 2287.5) (degC), Point: 159Temperature (Cp_Al = 632.19, k_Al = 115.18, sigma_Al = 4.3686E7, rho_Al = 2982.3, Cp_inlet = 1056.7, k_inlet = 176.7, sigma_inlet = 2.9847E7, rho_inlet = 1700.7, Cp_outlet = 800.93, k_outlet = 113.58, sigma_outlet = 4.3506E7, rho_outlet = 2719.6, Cp_outlet_sleeve = 731.21, k_outlet_sleeve = 179.55, sigma_outlet_sleeve = 3.0304E7, rho_outlet_sleeve = 2415.9, Cp_inlet_sleeve = 837.95, k_inlet_sleeve = 170.03, sigma_inlet_sleeve = 4.3637E7, rho_inlet_sleeve = 2287.5) (degC), Point: 163Temperature (Cp_Al = 632.19, k_Al = 115.18, sigma_Al = 4.3686E7, rho_Al = 2982.3, Cp_inlet = 1056.7, k_inlet = 176.7, sigma_inlet = 2.9847E7, rho_inlet = 1700.7, Cp_outlet = 800.93, k_outlet = 113.58, sigma_outlet = 4.3506E7, rho_outlet = 2719.6, Cp_outlet_sleeve = 731.21, k_outlet_sleeve = 179.55, sigma_outlet_sleeve = 3.0304E7, rho_outlet_sleeve = 2415.9, Cp_inlet_sleeve = 837.95, k_inlet_sleeve = 170.03, sigma_inlet_sleeve = 4.3637E7, rho_inlet_sleeve = 2287.5) (degC), Point: 167Temperature (Cp_Al = 632.19, k_Al = 115.18, sigma_Al = 4.3686E7, rho_Al = 2982.3, Cp_inlet = 1056.7, k_inlet = 176.7, sigma_inlet = 2.9847E7, rho_inlet = 1700.7, Cp_outlet = 800.93, k_outlet = 113.58, sigma_outlet = 4.3506E7, rho_outlet = 2719.6, Cp_outlet_sleeve = 731.21, k_outlet_sleeve = 179.55, sigma_outlet_sleeve = 3.0304E7, rho_outlet_sleeve = 2415.9, Cp_inlet_sleeve = 837.95, k_inlet_sleeve = 170.03, sigma_inlet_sleeve = 4.3637E7, rho_inlet_sleeve = 2287.5) (degC), Point: 168Temperature (Cp_Al = 632.19, k_Al = 115.18, sigma_Al = 4.3686E7, rho_Al = 2982.3, Cp_inlet = 1056.7, k_inlet = 176.7, sigma_inlet = 2.9847E7, rho_inlet = 1700.7, Cp_outlet = 800.93, k_outlet = 113.58, sigma_outlet = 4.3506E7, rho_outlet = 2719.6, Cp_outlet_sleeve = 731.21, k_outlet_sleeve = 179.55, sigma_outlet_sleeve = 3.0304E7, rho_outlet_sleeve = 2415.9, Cp_inlet_sleeve = 837.95, k_inlet_sleeve = 170.03, sigma_inlet_sleeve = 4.3637E7, rho_inlet_sleeve = 2287.5) (degC), Point: 172Temperature (Cp_Al = 632.19, k_Al = 115.18, sigma_Al = 4.3686E7, rho_Al = 2982.3, Cp_inlet = 1056.7, k_inlet = 176.7, sigma_inlet = 2.9847E7, rho_inlet = 1700.7, Cp_outlet = 800.93, k_outlet = 113.58, sigma_outlet = 4.3506E7, rho_outlet = 2719.6, Cp_outlet_sleeve = 731.21, k_outlet_sleeve = 179.55, sigma_outlet_sleeve = 3.0304E7, rho_outlet_sleeve = 2415.9, Cp_inlet_sleeve = 837.95, k_inlet_sleeve = 170.03, sigma_inlet_sleeve = 4.3637E7, rho_inlet_sleeve = 2287.5) (degC), Point: 181Temperature (Cp_Al = 632.19, k_Al = 115.18, sigma_Al = 4.3686E7, rho_Al = 2982.3, Cp_inlet = 1056.7, k_inlet = 176.7, sigma_inlet = 2.9847E7, rho_inlet = 1700.7, Cp_outlet = 800.93, k_outlet = 113.58, sigma_outlet = 4.3506E7, rho_outlet = 2719.6, Cp_outlet_sleeve = 731.21, k_outlet_sleeve = 179.55, sigma_outlet_sleeve = 3.0304E7, rho_outlet_sleeve = 2415.9, Cp_inlet_sleeve = 837.95, k_inlet_sleeve = 170.03, sigma_inlet_sleeve = 4.3637E7, rho_inlet_sleeve = 2287.5) (degC), Point: 201Temperature (Cp_Al = 632.19, k_Al = 115.18, sigma_Al = 4.3686E7, rho_Al = 2982.3, Cp_inlet = 1056.7, k_inlet = 176.7, sigma_inlet = 2.9847E7, rho_inlet = 1700.7, Cp_outlet = 800.93, k_outlet = 113.58, sigma_outlet = 4.3506E7, rho_outlet = 2719.6, Cp_outlet_sleeve = 731.21, k_outlet_sleeve = 179.55, sigma_outlet_sleeve = 3.0304E7, rho_outlet_sleeve = 2415.9, Cp_inlet_sleeve = 837.95, k_inlet_sleeve = 170.03, sigma_inlet_sleeve = 4.3637E7, rho_inlet_sleeve = 2287.5) (degC), Point: 210Temperature (Cp_Al = 632.19, k_Al = 115.18, sigma_Al = 4.3686E7, rho_Al = 2982.3, Cp_inlet = 1056.7, k_inlet = 176.7, sigma_inlet = 2.9847E7, rho_inlet = 1700.7, Cp_outlet = 800.93, k_outlet = 113.58, sigma_outlet = 4.3506E7, rho_outlet = 2719.6, Cp_outlet_sleeve = 731.21, k_outlet_sleeve = 179.55, sigma_outlet_sleeve = 3.0304E7, rho_outlet_sleeve = 2415.9, Cp_inlet_sleeve = 837.95, k_inlet_sleeve = 170.03, sigma_inlet_sleeve = 4.3637E7, rho_inlet_sleeve = 2287.5) (degC), Point: 213Temperature (Cp_Al = 632.19, k_Al = 115.18, sigma_Al = 4.3686E7, rho_Al = 2982.3, Cp_inlet = 1056.7, k_inlet = 176.7, sigma_inlet = 2.9847E7, rho_inlet = 1700.7, Cp_outlet = 800.93, k_outlet = 113.58, sigma_outlet = 4.3506E7, rho_outlet = 2719.6, Cp_outlet_sleeve = 731.21, k_outlet_sleeve = 179.55, sigma_outlet_sleeve = 3.0304E7, rho_outlet_sleeve = 2415.9, Cp_inlet_sleeve = 837.95, k_inlet_sleeve = 170.03, sigma_inlet_sleeve = 4.3637E7, rho_inlet_sleeve = 2287.5) (degC), Point: 215Temperature (Cp_Al = 632.19, k_Al = 115.18, sigma_Al = 4.3686E7, rho_Al = 2982.3, Cp_inlet = 1056.7, k_inlet = 176.7, sigma_inlet = 2.9847E7, rho_inlet = 1700.7, Cp_outlet = 800.93, k_outlet = 113.58, sigma_outlet = 4.3506E7, rho_outlet = 2719.6, Cp_outlet_sleeve = 731.21, k_outlet_sleeve = 179.55, sigma_outlet_sleeve = 3.0304E7, rho_outlet_sleeve = 2415.9, Cp_inlet_sleeve = 837.95, k_inlet_sleeve = 170.03, sigma_inlet_sleeve = 4.3637E7, rho_inlet_sleeve = 2287.5) (degC), Point: 229Temperature (Cp_Al = 632.19, k_Al = 115.18, sigma_Al = 4.3686E7, rho_Al = 2982.3, Cp_inlet = 1056.7, k_inlet = 176.7, sigma_inlet = 2.9847E7, rho_inlet = 1700.7, Cp_outlet = 800.93, k_outlet = 113.58, sigma_outlet = 4.3506E7, rho_outlet = 2719.6, Cp_outlet_sleeve = 731.21, k_outlet_sleeve = 179.55, sigma_outlet_sleeve = 3.0304E7, rho_outlet_sleeve = 2415.9, Cp_inlet_sleeve = 837.95, k_inlet_sleeve = 170.03, sigma_inlet_sleeve = 4.3637E7, rho_inlet_sleeve = 2287.5) (degC), Point: 232Temperature (Cp_Al = 632.19, k_Al = 115.18, sigma_Al = 4.3686E7, rho_Al = 2982.3, Cp_inlet = 1056.7, k_inlet = 176.7, sigma_inlet = 2.9847E7, rho_inlet = 1700.7, Cp_outlet = 800.93, k_outlet = 113.58, sigma_outlet = 4.3506E7, rho_outlet = 2719.6, Cp_outlet_sleeve = 731.21, k_outlet_sleeve = 179.55, sigma_outlet_sleeve = 3.0304E7, rho_outlet_sleeve = 2415.9, Cp_inlet_sleeve = 837.95, k_inlet_sleeve = 170.03, sigma_inlet_sleeve = 4.3637E7, rho_inlet_sleeve = 2287.5) (degC), Point: 239Temperature (Cp_Al = 632.19, k_Al = 115.18, sigma_Al = 4.3686E7, rho_Al = 2982.3, Cp_inlet = 1056.7, k_inlet = 176.7, sigma_inlet = 2.9847E7, rho_inlet = 1700.7, Cp_outlet = 800.93, k_outlet = 113.58, sigma_outlet = 4.3506E7, rho_outlet = 2719.6, Cp_outlet_sleeve = 731.21, k_outlet_sleeve = 179.55, sigma_outlet_sleeve = 3.0304E7, rho_outlet_sleeve = 2415.9, Cp_inlet_sleeve = 837.95, k_inlet_sleeve = 170.03, sigma_inlet_sleeve = 4.3637E7, rho_inlet_sleeve = 2287.5) (degC), Point: 252Temperature (Cp_Al = 632.19, k_Al = 115.18, sigma_Al = 4.3686E7, rho_Al = 2982.3, Cp_inlet = 1056.7, k_inlet = 176.7, sigma_inlet = 2.9847E7, rho_inlet = 1700.7, Cp_outlet = 800.93, k_outlet = 113.58, sigma_outlet = 4.3506E7, rho_outlet = 2719.6, Cp_outlet_sleeve = 731.21, k_outlet_sleeve = 179.55, sigma_outlet_sleeve = 3.0304E7, rho_outlet_sleeve = 2415.9, Cp_inlet_sleeve = 837.95, k_inlet_sleeve = 170.03, sigma_inlet_sleeve = 4.3637E7, rho_inlet_sleeve = 2287.5) (degC), Point: 261Temperature (Cp_Al = 632.19, k_Al = 115.18, sigma_Al = 4.3686E7, rho_Al = 2982.3, Cp_inlet = 1056.7, k_inlet = 176.7, sigma_inlet = 2.9847E7, rho_inlet = 1700.7, Cp_outlet = 800.93, k_outlet = 113.58, sigma_outlet = 4.3506E7, rho_outlet = 2719.6, Cp_outlet_sleeve = 731.21, k_outlet_sleeve = 179.55, sigma_outlet_sleeve = 3.0304E7, rho_outlet_sleeve = 2415.9, Cp_inlet_sleeve = 837.95, k_inlet_sleeve = 170.03, sigma_inlet_sleeve = 4.3637E7, rho_inlet_sleeve = 2287.5) (degC), Point: 270Temperature (Cp_Al = 632.19, k_Al = 115.18, sigma_Al = 4.3686E7, rho_Al = 2982.3, Cp_inlet = 1056.7, k_inlet = 176.7, sigma_inlet = 2.9847E7, rho_inlet = 1700.7, Cp_outlet = 800.93, k_outlet = 113.58, sigma_outlet = 4.3506E7, rho_outlet = 2719.6, Cp_outlet_sleeve = 731.21, k_outlet_sleeve = 179.55, sigma_outlet_sleeve = 3.0304E7, rho_outlet_sleeve = 2415.9, Cp_inlet_sleeve = 837.95, k_inlet_sleeve = 170.03, sigma_inlet_sleeve = 4.3637E7, rho_inlet_sleeve = 2287.5) (degC), Point: 273Temperature (Cp_Al = 632.19, k_Al = 115.18, sigma_Al = 4.3686E7, rho_Al = 2982.3, Cp_inlet = 1056.7, k_inlet = 176.7, sigma_inlet = 2.9847E7, rho_inlet = 1700.7, Cp_outlet = 800.93, k_outlet = 113.58, sigma_outlet = 4.3506E7, rho_outlet = 2719.6, Cp_outlet_sleeve = 731.21, k_outlet_sleeve = 179.55, sigma_outlet_sleeve = 3.0304E7, rho_outlet_sleeve = 2415.9, Cp_inlet_sleeve = 837.95, k_inlet_sleeve = 170.03, sigma_inlet_sleeve = 4.3637E7, rho_inlet_sleeve = 2287.5) (degC), Point: 275
0                        21.701288813548388       21.01639749035644        21.132214941586028       21.0085119307559         21.016618852443344       21.108957813692427       21.0099993389274         21.033182549543312       21.0017282980844         21.02481273372007        21.00139322540366        21.000713200853795       21.009531634070925       21.00012483654558        21.009883241150817       21.023243692093672       21.00005636512725        21.011626453643203       21.000737640886825       21.000306806316075       21.00179981654088        21.00019642911218        21.000298815156384       21.009990925579928       21.11950330722391        21.01594929332657        21.691039850360994       21.00836909136683        21.145088883134292       21.019384379045448       21.77983165827652
3                        330.5882456553943        300.3342564787298        310.46312191368645       306.0420242645372        295.0848983120401        308.7407926388047        307.36809946342146       294.9328493384055        289.9142255927501        301.61915845221506       304.0262170307424        296.4708387395315        293.42902112113404       280.2542799375733        285.24074105511727       264.03696142682395       259.7236132138954        267.7551169901227        268.90677898303625       262.2908326470316        261.9019332124168        256.6254498147167        259.3061816848964        309.117643624377         310.926880761437         296.3853714125787        328.24172214997054       307.37376167920047       311.91064838535726       298.6613051542737        333.54308000221226
6                        463.1219531138936        431.3232339821658        445.89628634928283       442.45534928149925       422.091956802965         440.61797157185026       440.32456200182855       423.57136733259017       416.76064312199674       433.3954241268252        436.88900707651885       429.30554344666973       425.1786582917873        407.06022218230953       413.8307727258102        394.91615107492464       388.9699329609749        401.6780980950373        403.8573855566997        397.31570262722585       395.9714059018122        386.22767663379204       390.47662424594205       441.86800450650696       442.5653668400704        423.0281204132002        456.6983478440985        440.7948853791571        444.3275910385713        426.33404695360605       462.9007206811144
9                        541.0323858704842        508.357124186594         525.8482553806455        523.2637526251472        492.78356948266514       514.3097118886865        514.880330047959         495.1071977768099        487.3498314581245        507.02632146213193       511.38921289411553       503.8018464864747        498.80578948749155       477.6415970459434        485.3503201827417        471.71487822887605       464.8394167533944        480.6030285903063        483.6678998494875        477.29015055008233       475.0993265849754        462.4123177209789        467.554965166462         516.3166156529281        516.1240189113681        493.50529015429026       528.1336875808647        519.7398365257059        522.3956843212865        501.28991382000845       538.8210343565912
12                       595.6819284542788        562.4233759614593        581.9750467602291        580.0508303160219        542.1759767415541        565.7815372176718        567.0032847846538        545.0469755608012        536.6754289027681        558.4593360147516        563.4769863609974        555.8918666746015        550.2407410462947        526.9662557790664        535.2829525326644        525.6887797502521        518.1948997856464        536.1137736299754        539.8606516240461        533.5768943219887        530.7254612047047        515.9484627625401        521.6876134913916        568.3774932303182        567.5145322063889        542.7619091498859        578.0115952696416        575.4110179457363        577.3837577966602        554.0725715405449        592.2470970293867
15                       636.3160910451882        602.6562282187797        623.7009872047654        622.2882670345625        579.3774858234535        604.5077357361371        606.2387031534416        582.6289933583399        573.8330619393691        597.160765677684         602.6901165748884        595.109108228326         588.9457108470205        564.1248799238444        572.861345823606         565.902398801399         557.9837472617302        577.4610686714944        581.7355476294391        575.5302052346084        572.1607281589397        555.8582657622559        562.0096769660365        607.5772351877498        606.190412987941         579.8757891205134        615.5542908866468        616.9887434940199        618.4266907989544        593.5102830056898        632.1285678213306
18                       668.808832654976         634.8568678297352        657.0336454014459        656.0273540980695        609.8261205919206        636.1530086044465        638.3006732843642        613.3665726158983        604.2519080373711        628.7897455973592        634.7375173991513        627.1607028813297        620.5782027518756        594.5447384735168        603.5963862977934        598.121403499366         589.8944100468796        610.550606929309         615.243895988414         609.1095688646552        605.3241831892774        587.8572695818029        594.3100489366358        639.6182154564736        637.8031264542586        610.2652223253583        646.2653089958345        650.3290702448393        651.3381547309624        625.1998403082308        664.1415325164506
21                       696.5366640746062        662.3585102637351        685.438024607071         684.7660122162337        636.4140315203539        663.7292439250044        666.2290134676998        640.1896274846097        630.8187968341764        656.3548523114277        662.6559526712059        655.0828320278017        648.1463063643594        621.1121775573098        630.4171538908823        625.6621096066388        617.1971927423207        638.7912014770108        643.8286348019531        637.7577089241956        633.6277116802428        615.2277009019583        621.9144634377623        667.5337991758216        665.3571853548019        636.8111536295537        673.0692984855214        678.8177201571226        679.4718169073201        652.3571095788241        691.5489451695655
24                       721.2526568014655        686.8912501108165        710.7182548610007        710.3289676646256        660.5123866611924        688.662680647941         691.4637014064054        664.4855688424271        654.9019464797908        681.2805120127712        687.8837440418863        680.3137530823755        673.074435034687         645.1954909539494        654.7109305400214        650.2459925452459        641.5891022189046        663.9575856048666        669.2857615091935        663.2709046934831        658.8480582165814        639.6732678652515        646.5497539988772        692.7607059174609        690.2750596130562        660.8788814230004        697.3510796844924        704.2212199426924        704.5740029811969        676.6509365420898        716.0447260357611
27                       743.9402189783281        709.425711581439         733.887653553599         733.7421317629542        682.8385339743057        711.6990862460898        714.7582281121734        686.9793882876307        677.2168895174185        704.3113901533121        711.1733850077362        703.6060487983366        696.1073704823302        667.5104105910174        677.2027806793297        672.8379472196249        664.0213405175544        687.0459203845586        692.6244554207127        686.6592438785633        681.9832196642716        662.1495540904518        669.1844535586378        716.0505884571487        713.3003556913586        683.1822939340509        719.8341997610382        727.532342450881         727.6249699651979        699.0164624826176        738.5781369444434
