% Model:              brazing.mph
% Version:            COMSOL 5.3.0.223
% Date:               Oct 24 2018, 03:22
% Table:              Table 3 - 
% Time (s)               Temperature (Cp_Al = 857.75, k_Al = 134.82, sigma_Al = 4.0725E7, rho_Al = 2665.6, Cp_inlet = 961.93, k_inlet = 160.93, sigma_inlet = 3.1115E7, rho_inlet = 2184.8, Cp_outlet = 818.16, k_outlet = 139.31, sigma_outlet = 3.6883E7, rho_outlet = 2462.9, Cp_outlet_sleeve = 852.37, k_outlet_sleeve = 174.42, sigma_outlet_sleeve = 3.3731E7, rho_outlet_sleeve = 2304.7, Cp_inlet_sleeve = 889.31, k_inlet_sleeve = 153.89, sigma_inlet_sleeve = 4.4533E7, rho_inlet_sleeve = 2480.4) (degC), Point: 55Temperature (Cp_Al = 857.75, k_Al = 134.82, sigma_Al = 4.0725E7, rho_Al = 2665.6, Cp_inlet = 961.93, k_inlet = 160.93, sigma_inlet = 3.1115E7, rho_inlet = 2184.8, Cp_outlet = 818.16, k_outlet = 139.31, sigma_outlet = 3.6883E7, rho_outlet = 2462.9, Cp_outlet_sleeve = 852.37, k_outlet_sleeve = 174.42, sigma_outlet_sleeve = 3.3731E7, rho_outlet_sleeve = 2304.7, Cp_inlet_sleeve = 889.31, k_inlet_sleeve = 153.89, sigma_inlet_sleeve = 4.4533E7, rho_inlet_sleeve = 2480.4) (degC), Point: 56Temperature (Cp_Al = 857.75, k_Al = 134.82, sigma_Al = 4.0725E7, rho_Al = 2665.6, Cp_inlet = 961.93, k_inlet = 160.93, sigma_inlet = 3.1115E7, rho_inlet = 2184.8, Cp_outlet = 818.16, k_outlet = 139.31, sigma_outlet = 3.6883E7, rho_outlet = 2462.9, Cp_outlet_sleeve = 852.37, k_outlet_sleeve = 174.42, sigma_outlet_sleeve = 3.3731E7, rho_outlet_sleeve = 2304.7, Cp_inlet_sleeve = 889.31, k_inlet_sleeve = 153.89, sigma_inlet_sleeve = 4.4533E7, rho_inlet_sleeve = 2480.4) (degC), Point: 60Temperature (Cp_Al = 857.75, k_Al = 134.82, sigma_Al = 4.0725E7, rho_Al = 2665.6, Cp_inlet = 961.93, k_inlet = 160.93, sigma_inlet = 3.1115E7, rho_inlet = 2184.8, Cp_outlet = 818.16, k_outlet = 139.31, sigma_outlet = 3.6883E7, rho_outlet = 2462.9, Cp_outlet_sleeve = 852.37, k_outlet_sleeve = 174.42, sigma_outlet_sleeve = 3.3731E7, rho_outlet_sleeve = 2304.7, Cp_inlet_sleeve = 889.31, k_inlet_sleeve = 153.89, sigma_inlet_sleeve = 4.4533E7, rho_inlet_sleeve = 2480.4) (degC), Point: 69Temperature (Cp_Al = 857.75, k_Al = 134.82, sigma_Al = 4.0725E7, rho_Al = 2665.6, Cp_inlet = 961.93, k_inlet = 160.93, sigma_inlet = 3.1115E7, rho_inlet = 2184.8, Cp_outlet = 818.16, k_outlet = 139.31, sigma_outlet = 3.6883E7, rho_outlet = 2462.9, Cp_outlet_sleeve = 852.37, k_outlet_sleeve = 174.42, sigma_outlet_sleeve = 3.3731E7, rho_outlet_sleeve = 2304.7, Cp_inlet_sleeve = 889.31, k_inlet_sleeve = 153.89, sigma_inlet_sleeve = 4.4533E7, rho_inlet_sleeve = 2480.4) (degC), Point: 90Temperature (Cp_Al = 857.75, k_Al = 134.82, sigma_Al = 4.0725E7, rho_Al = 2665.6, Cp_inlet = 961.93, k_inlet = 160.93, sigma_inlet = 3.1115E7, rho_inlet = 2184.8, Cp_outlet = 818.16, k_outlet = 139.31, sigma_outlet = 3.6883E7, rho_outlet = 2462.9, Cp_outlet_sleeve = 852.37, k_outlet_sleeve = 174.42, sigma_outlet_sleeve = 3.3731E7, rho_outlet_sleeve = 2304.7, Cp_inlet_sleeve = 889.31, k_inlet_sleeve = 153.89, sigma_inlet_sleeve = 4.4533E7, rho_inlet_sleeve = 2480.4) (degC), Point: 98Temperature (Cp_Al = 857.75, k_Al = 134.82, sigma_Al = 4.0725E7, rho_Al = 2665.6, Cp_inlet = 961.93, k_inlet = 160.93, sigma_inlet = 3.1115E7, rho_inlet = 2184.8, Cp_outlet = 818.16, k_outlet = 139.31, sigma_outlet = 3.6883E7, rho_outlet = 2462.9, Cp_outlet_sleeve = 852.37, k_outlet_sleeve = 174.42, sigma_outlet_sleeve = 3.3731E7, rho_outlet_sleeve = 2304.7, Cp_inlet_sleeve = 889.31, k_inlet_sleeve = 153.89, sigma_inlet_sleeve = 4.4533E7, rho_inlet_sleeve = 2480.4) (degC), Point: 102Temperature (Cp_Al = 857.75, k_Al = 134.82, sigma_Al = 4.0725E7, rho_Al = 2665.6, Cp_inlet = 961.93, k_inlet = 160.93, sigma_inlet = 3.1115E7, rho_inlet = 2184.8, Cp_outlet = 818.16, k_outlet = 139.31, sigma_outlet = 3.6883E7, rho_outlet = 2462.9, Cp_outlet_sleeve = 852.37, k_outlet_sleeve = 174.42, sigma_outlet_sleeve = 3.3731E7, rho_outlet_sleeve = 2304.7, Cp_inlet_sleeve = 889.31, k_inlet_sleeve = 153.89, sigma_inlet_sleeve = 4.4533E7, rho_inlet_sleeve = 2480.4) (degC), Point: 127Temperature (Cp_Al = 857.75, k_Al = 134.82, sigma_Al = 4.0725E7, rho_Al = 2665.6, Cp_inlet = 961.93, k_inlet = 160.93, sigma_inlet = 3.1115E7, rho_inlet = 2184.8, Cp_outlet = 818.16, k_outlet = 139.31, sigma_outlet = 3.6883E7, rho_outlet = 2462.9, Cp_outlet_sleeve = 852.37, k_outlet_sleeve = 174.42, sigma_outlet_sleeve = 3.3731E7, rho_outlet_sleeve = 2304.7, Cp_inlet_sleeve = 889.31, k_inlet_sleeve = 153.89, sigma_inlet_sleeve = 4.4533E7, rho_inlet_sleeve = 2480.4) (degC), Point: 128Temperature (Cp_Al = 857.75, k_Al = 134.82, sigma_Al = 4.0725E7, rho_Al = 2665.6, Cp_inlet = 961.93, k_inlet = 160.93, sigma_inlet = 3.1115E7, rho_inlet = 2184.8, Cp_outlet = 818.16, k_outlet = 139.31, sigma_outlet = 3.6883E7, rho_outlet = 2462.9, Cp_outlet_sleeve = 852.37, k_outlet_sleeve = 174.42, sigma_outlet_sleeve = 3.3731E7, rho_outlet_sleeve = 2304.7, Cp_inlet_sleeve = 889.31, k_inlet_sleeve = 153.89, sigma_inlet_sleeve = 4.4533E7, rho_inlet_sleeve = 2480.4) (degC), Point: 134Temperature (Cp_Al = 857.75, k_Al = 134.82, sigma_Al = 4.0725E7, rho_Al = 2665.6, Cp_inlet = 961.93, k_inlet = 160.93, sigma_inlet = 3.1115E7, rho_inlet = 2184.8, Cp_outlet = 818.16, k_outlet = 139.31, sigma_outlet = 3.6883E7, rho_outlet = 2462.9, Cp_outlet_sleeve = 852.37, k_outlet_sleeve = 174.42, sigma_outlet_sleeve = 3.3731E7, rho_outlet_sleeve = 2304.7, Cp_inlet_sleeve = 889.31, k_inlet_sleeve = 153.89, sigma_inlet_sleeve = 4.4533E7, rho_inlet_sleeve = 2480.4) (degC), Point: 138Temperature (Cp_Al = 857.75, k_Al = 134.82, sigma_Al = 4.0725E7, rho_Al = 2665.6, Cp_inlet = 961.93, k_inlet = 160.93, sigma_inlet = 3.1115E7, rho_inlet = 2184.8, Cp_outlet = 818.16, k_outlet = 139.31, sigma_outlet = 3.6883E7, rho_outlet = 2462.9, Cp_outlet_sleeve = 852.37, k_outlet_sleeve = 174.42, sigma_outlet_sleeve = 3.3731E7, rho_outlet_sleeve = 2304.7, Cp_inlet_sleeve = 889.31, k_inlet_sleeve = 153.89, sigma_inlet_sleeve = 4.4533E7, rho_inlet_sleeve = 2480.4) (degC), Point: 151Temperature (Cp_Al = 857.75, k_Al = 134.82, sigma_Al = 4.0725E7, rho_Al = 2665.6, Cp_inlet = 961.93, k_inlet = 160.93, sigma_inlet = 3.1115E7, rho_inlet = 2184.8, Cp_outlet = 818.16, k_outlet = 139.31, sigma_outlet = 3.6883E7, rho_outlet = 2462.9, Cp_outlet_sleeve = 852.37, k_outlet_sleeve = 174.42, sigma_outlet_sleeve = 3.3731E7, rho_outlet_sleeve = 2304.7, Cp_inlet_sleeve = 889.31, k_inlet_sleeve = 153.89, sigma_inlet_sleeve = 4.4533E7, rho_inlet_sleeve = 2480.4) (degC), Point: 154Temperature (Cp_Al = 857.75, k_Al = 134.82, sigma_Al = 4.0725E7, rho_Al = 2665.6, Cp_inlet = 961.93, k_inlet = 160.93, sigma_inlet = 3.1115E7, rho_inlet = 2184.8, Cp_outlet = 818.16, k_outlet = 139.31, sigma_outlet = 3.6883E7, rho_outlet = 2462.9, Cp_outlet_sleeve = 852.37, k_outlet_sleeve = 174.42, sigma_outlet_sleeve = 3.3731E7, rho_outlet_sleeve = 2304.7, Cp_inlet_sleeve = 889.31, k_inlet_sleeve = 153.89, sigma_inlet_sleeve = 4.4533E7, rho_inlet_sleeve = 2480.4) (degC), Point: 159Temperature (Cp_Al = 857.75, k_Al = 134.82, sigma_Al = 4.0725E7, rho_Al = 2665.6, Cp_inlet = 961.93, k_inlet = 160.93, sigma_inlet = 3.1115E7, rho_inlet = 2184.8, Cp_outlet = 818.16, k_outlet = 139.31, sigma_outlet = 3.6883E7, rho_outlet = 2462.9, Cp_outlet_sleeve = 852.37, k_outlet_sleeve = 174.42, sigma_outlet_sleeve = 3.3731E7, rho_outlet_sleeve = 2304.7, Cp_inlet_sleeve = 889.31, k_inlet_sleeve = 153.89, sigma_inlet_sleeve = 4.4533E7, rho_inlet_sleeve = 2480.4) (degC), Point: 163Temperature (Cp_Al = 857.75, k_Al = 134.82, sigma_Al = 4.0725E7, rho_Al = 2665.6, Cp_inlet = 961.93, k_inlet = 160.93, sigma_inlet = 3.1115E7, rho_inlet = 2184.8, Cp_outlet = 818.16, k_outlet = 139.31, sigma_outlet = 3.6883E7, rho_outlet = 2462.9, Cp_outlet_sleeve = 852.37, k_outlet_sleeve = 174.42, sigma_outlet_sleeve = 3.3731E7, rho_outlet_sleeve = 2304.7, Cp_inlet_sleeve = 889.31, k_inlet_sleeve = 153.89, sigma_inlet_sleeve = 4.4533E7, rho_inlet_sleeve = 2480.4) (degC), Point: 167Temperature (Cp_Al = 857.75, k_Al = 134.82, sigma_Al = 4.0725E7, rho_Al = 2665.6, Cp_inlet = 961.93, k_inlet = 160.93, sigma_inlet = 3.1115E7, rho_inlet = 2184.8, Cp_outlet = 818.16, k_outlet = 139.31, sigma_outlet = 3.6883E7, rho_outlet = 2462.9, Cp_outlet_sleeve = 852.37, k_outlet_sleeve = 174.42, sigma_outlet_sleeve = 3.3731E7, rho_outlet_sleeve = 2304.7, Cp_inlet_sleeve = 889.31, k_inlet_sleeve = 153.89, sigma_inlet_sleeve = 4.4533E7, rho_inlet_sleeve = 2480.4) (degC), Point: 168Temperature (Cp_Al = 857.75, k_Al = 134.82, sigma_Al = 4.0725E7, rho_Al = 2665.6, Cp_inlet = 961.93, k_inlet = 160.93, sigma_inlet = 3.1115E7, rho_inlet = 2184.8, Cp_outlet = 818.16, k_outlet = 139.31, sigma_outlet = 3.6883E7, rho_outlet = 2462.9, Cp_outlet_sleeve = 852.37, k_outlet_sleeve = 174.42, sigma_outlet_sleeve = 3.3731E7, rho_outlet_sleeve = 2304.7, Cp_inlet_sleeve = 889.31, k_inlet_sleeve = 153.89, sigma_inlet_sleeve = 4.4533E7, rho_inlet_sleeve = 2480.4) (degC), Point: 172Temperature (Cp_Al = 857.75, k_Al = 134.82, sigma_Al = 4.0725E7, rho_Al = 2665.6, Cp_inlet = 961.93, k_inlet = 160.93, sigma_inlet = 3.1115E7, rho_inlet = 2184.8, Cp_outlet = 818.16, k_outlet = 139.31, sigma_outlet = 3.6883E7, rho_outlet = 2462.9, Cp_outlet_sleeve = 852.37, k_outlet_sleeve = 174.42, sigma_outlet_sleeve = 3.3731E7, rho_outlet_sleeve = 2304.7, Cp_inlet_sleeve = 889.31, k_inlet_sleeve = 153.89, sigma_inlet_sleeve = 4.4533E7, rho_inlet_sleeve = 2480.4) (degC), Point: 181Temperature (Cp_Al = 857.75, k_Al = 134.82, sigma_Al = 4.0725E7, rho_Al = 2665.6, Cp_inlet = 961.93, k_inlet = 160.93, sigma_inlet = 3.1115E7, rho_inlet = 2184.8, Cp_outlet = 818.16, k_outlet = 139.31, sigma_outlet = 3.6883E7, rho_outlet = 2462.9, Cp_outlet_sleeve = 852.37, k_outlet_sleeve = 174.42, sigma_outlet_sleeve = 3.3731E7, rho_outlet_sleeve = 2304.7, Cp_inlet_sleeve = 889.31, k_inlet_sleeve = 153.89, sigma_inlet_sleeve = 4.4533E7, rho_inlet_sleeve = 2480.4) (degC), Point: 201Temperature (Cp_Al = 857.75, k_Al = 134.82, sigma_Al = 4.0725E7, rho_Al = 2665.6, Cp_inlet = 961.93, k_inlet = 160.93, sigma_inlet = 3.1115E7, rho_inlet = 2184.8, Cp_outlet = 818.16, k_outlet = 139.31, sigma_outlet = 3.6883E7, rho_outlet = 2462.9, Cp_outlet_sleeve = 852.37, k_outlet_sleeve = 174.42, sigma_outlet_sleeve = 3.3731E7, rho_outlet_sleeve = 2304.7, Cp_inlet_sleeve = 889.31, k_inlet_sleeve = 153.89, sigma_inlet_sleeve = 4.4533E7, rho_inlet_sleeve = 2480.4) (degC), Point: 210Temperature (Cp_Al = 857.75, k_Al = 134.82, sigma_Al = 4.0725E7, rho_Al = 2665.6, Cp_inlet = 961.93, k_inlet = 160.93, sigma_inlet = 3.1115E7, rho_inlet = 2184.8, Cp_outlet = 818.16, k_outlet = 139.31, sigma_outlet = 3.6883E7, rho_outlet = 2462.9, Cp_outlet_sleeve = 852.37, k_outlet_sleeve = 174.42, sigma_outlet_sleeve = 3.3731E7, rho_outlet_sleeve = 2304.7, Cp_inlet_sleeve = 889.31, k_inlet_sleeve = 153.89, sigma_inlet_sleeve = 4.4533E7, rho_inlet_sleeve = 2480.4) (degC), Point: 213Temperature (Cp_Al = 857.75, k_Al = 134.82, sigma_Al = 4.0725E7, rho_Al = 2665.6, Cp_inlet = 961.93, k_inlet = 160.93, sigma_inlet = 3.1115E7, rho_inlet = 2184.8, Cp_outlet = 818.16, k_outlet = 139.31, sigma_outlet = 3.6883E7, rho_outlet = 2462.9, Cp_outlet_sleeve = 852.37, k_outlet_sleeve = 174.42, sigma_outlet_sleeve = 3.3731E7, rho_outlet_sleeve = 2304.7, Cp_inlet_sleeve = 889.31, k_inlet_sleeve = 153.89, sigma_inlet_sleeve = 4.4533E7, rho_inlet_sleeve = 2480.4) (degC), Point: 215Temperature (Cp_Al = 857.75, k_Al = 134.82, sigma_Al = 4.0725E7, rho_Al = 2665.6, Cp_inlet = 961.93, k_inlet = 160.93, sigma_inlet = 3.1115E7, rho_inlet = 2184.8, Cp_outlet = 818.16, k_outlet = 139.31, sigma_outlet = 3.6883E7, rho_outlet = 2462.9, Cp_outlet_sleeve = 852.37, k_outlet_sleeve = 174.42, sigma_outlet_sleeve = 3.3731E7, rho_outlet_sleeve = 2304.7, Cp_inlet_sleeve = 889.31, k_inlet_sleeve = 153.89, sigma_inlet_sleeve = 4.4533E7, rho_inlet_sleeve = 2480.4) (degC), Point: 229Temperature (Cp_Al = 857.75, k_Al = 134.82, sigma_Al = 4.0725E7, rho_Al = 2665.6, Cp_inlet = 961.93, k_inlet = 160.93, sigma_inlet = 3.1115E7, rho_inlet = 2184.8, Cp_outlet = 818.16, k_outlet = 139.31, sigma_outlet = 3.6883E7, rho_outlet = 2462.9, Cp_outlet_sleeve = 852.37, k_outlet_sleeve = 174.42, sigma_outlet_sleeve = 3.3731E7, rho_outlet_sleeve = 2304.7, Cp_inlet_sleeve = 889.31, k_inlet_sleeve = 153.89, sigma_inlet_sleeve = 4.4533E7, rho_inlet_sleeve = 2480.4) (degC), Point: 232Temperature (Cp_Al = 857.75, k_Al = 134.82, sigma_Al = 4.0725E7, rho_Al = 2665.6, Cp_inlet = 961.93, k_inlet = 160.93, sigma_inlet = 3.1115E7, rho_inlet = 2184.8, Cp_outlet = 818.16, k_outlet = 139.31, sigma_outlet = 3.6883E7, rho_outlet = 2462.9, Cp_outlet_sleeve = 852.37, k_outlet_sleeve = 174.42, sigma_outlet_sleeve = 3.3731E7, rho_outlet_sleeve = 2304.7, Cp_inlet_sleeve = 889.31, k_inlet_sleeve = 153.89, sigma_inlet_sleeve = 4.4533E7, rho_inlet_sleeve = 2480.4) (degC), Point: 239Temperature (Cp_Al = 857.75, k_Al = 134.82, sigma_Al = 4.0725E7, rho_Al = 2665.6, Cp_inlet = 961.93, k_inlet = 160.93, sigma_inlet = 3.1115E7, rho_inlet = 2184.8, Cp_outlet = 818.16, k_outlet = 139.31, sigma_outlet = 3.6883E7, rho_outlet = 2462.9, Cp_outlet_sleeve = 852.37, k_outlet_sleeve = 174.42, sigma_outlet_sleeve = 3.3731E7, rho_outlet_sleeve = 2304.7, Cp_inlet_sleeve = 889.31, k_inlet_sleeve = 153.89, sigma_inlet_sleeve = 4.4533E7, rho_inlet_sleeve = 2480.4) (degC), Point: 252Temperature (Cp_Al = 857.75, k_Al = 134.82, sigma_Al = 4.0725E7, rho_Al = 2665.6, Cp_inlet = 961.93, k_inlet = 160.93, sigma_inlet = 3.1115E7, rho_inlet = 2184.8, Cp_outlet = 818.16, k_outlet = 139.31, sigma_outlet = 3.6883E7, rho_outlet = 2462.9, Cp_outlet_sleeve = 852.37, k_outlet_sleeve = 174.42, sigma_outlet_sleeve = 3.3731E7, rho_outlet_sleeve = 2304.7, Cp_inlet_sleeve = 889.31, k_inlet_sleeve = 153.89, sigma_inlet_sleeve = 4.4533E7, rho_inlet_sleeve = 2480.4) (degC), Point: 261Temperature (Cp_Al = 857.75, k_Al = 134.82, sigma_Al = 4.0725E7, rho_Al = 2665.6, Cp_inlet = 961.93, k_inlet = 160.93, sigma_inlet = 3.1115E7, rho_inlet = 2184.8, Cp_outlet = 818.16, k_outlet = 139.31, sigma_outlet = 3.6883E7, rho_outlet = 2462.9, Cp_outlet_sleeve = 852.37, k_outlet_sleeve = 174.42, sigma_outlet_sleeve = 3.3731E7, rho_outlet_sleeve = 2304.7, Cp_inlet_sleeve = 889.31, k_inlet_sleeve = 153.89, sigma_inlet_sleeve = 4.4533E7, rho_inlet_sleeve = 2480.4) (degC), Point: 270Temperature (Cp_Al = 857.75, k_Al = 134.82, sigma_Al = 4.0725E7, rho_Al = 2665.6, Cp_inlet = 961.93, k_inlet = 160.93, sigma_inlet = 3.1115E7, rho_inlet = 2184.8, Cp_outlet = 818.16, k_outlet = 139.31, sigma_outlet = 3.6883E7, rho_outlet = 2462.9, Cp_outlet_sleeve = 852.37, k_outlet_sleeve = 174.42, sigma_outlet_sleeve = 3.3731E7, rho_outlet_sleeve = 2304.7, Cp_inlet_sleeve = 889.31, k_inlet_sleeve = 153.89, sigma_inlet_sleeve = 4.4533E7, rho_inlet_sleeve = 2480.4) (degC), Point: 273Temperature (Cp_Al = 857.75, k_Al = 134.82, sigma_Al = 4.0725E7, rho_Al = 2665.6, Cp_inlet = 961.93, k_inlet = 160.93, sigma_inlet = 3.1115E7, rho_inlet = 2184.8, Cp_outlet = 818.16, k_outlet = 139.31, sigma_outlet = 3.6883E7, rho_outlet = 2462.9, Cp_outlet_sleeve = 852.37, k_outlet_sleeve = 174.42, sigma_outlet_sleeve = 3.3731E7, rho_outlet_sleeve = 2304.7, Cp_inlet_sleeve = 889.31, k_inlet_sleeve = 153.89, sigma_inlet_sleeve = 4.4533E7, rho_inlet_sleeve = 2480.4) (degC), Point: 275
0                        21.671812347482216       21.014152446516164       21.13277210586523        21.009223485580037       21.01460793752534        21.10837113674171        21.009202176117128       21.0294959228184         21.001502058657252       21.024669467532135       21.001283039203543       21.000659869673086       21.0094714195576         21.000113129110957       21.00869730487858        21.022189423483212       21.000055532122644       21.01165045494872        21.00078018461761        21.000314705440303       21.00178878132391        21.000181300631027       21.00027910913633        21.0091802333784         21.11886533386695        21.014003318816208       21.6157846950191         21.009110388917918       21.14574705705138        21.01730872933672        21.747176673384672
3                        321.29839466513033       289.1954987998952        300.37057471920104       296.25236267632806       273.6792608474101        286.9648156482141        285.4829833886273        273.2133211985563        268.0480887297581        279.6156182967668        281.87612432869184       273.77062048144353       270.8937703952272        257.6886528176075        262.8084162581371        256.1045812432974        251.4363710821417        261.1660046569732        262.9554090443229        256.4302936365192        255.30390436846756       248.19867701843975       251.17362886388753       287.4615051394311        289.38033116753536       275.22444208045556       309.97421529551696       297.68647654525375       302.0173343756933        288.08414568922626       324.85600565066443
6                        447.2266383543947        413.581458125735         428.93899959342207       425.7078574087269        400.32130117723466       418.5931260677461        418.17192149704704       401.68840742544785       394.53028113540836       411.14050375092813       414.4676396438731        406.3439144198985        402.4040599986714        384.1487126650534        391.25084356778507       380.554809868494         374.2643246808509        388.3894056721788        391.10975206265016       384.6786844277766        382.690234497618         371.3948293068655        375.9277771534514        419.94724669730056       420.7772493399549        401.52253453276273       438.28357763405415       424.5383000382809        427.9593624554078        409.5731837886343        448.01121557314525
9                        519.61772883454          485.10275707210633       503.2420459989247        500.8113427598497        472.03078437088254       493.5626686954473        494.04185907276576       474.4141325765364        466.1414861859066        486.05093572974647       490.28266035365857       482.15134760006936       477.3076005726           455.7486641028371        463.95577806976974       451.98815440829253       444.7777074836056        461.82369397227615       465.3769268418746        459.106208804101         456.3178002025014        442.20077535264716       447.6213688702077        495.7085360991905        495.6136888278296        473.02257101221414       510.908409121958         498.1012217952906        500.68849350308744       479.31145808497877       518.7045023998668
12                       569.3637913017106        534.2718338965475        554.397697878326         552.5986244883549        520.7325122742807        544.5285212881928        545.6931792069374        523.7709998860801        514.7796959798125        536.97959032954          541.8996636084378        533.7668290655533        528.2345793363953        504.3811608712376        513.3002215741436        501.1701081279988        493.34978889237004       512.4764723265757        516.6848955339838        510.5117090110631        507.08168199182614       490.93047596472957       496.9436437365655        547.2964919073391        546.4975001204165        521.5903850507756        560.201350379788         549.0101474837953        550.9311139607214        527.4054107046961        567.4352921869801
15                       606.6518412428712        571.1475712892385        592.7717125222953        591.4800644028338        556.9081541559169        582.3566993348802        584.051656931184         560.4009764870793        550.912982023181         574.7836410758947        580.2360300614416        572.1046129557791        566.0395808403476        540.5119556837012        549.9227507874374        538.105596540479         529.8506726866182        550.5415309944954        555.2749824687036        549.1889427599884        545.2375543967679        527.5409575378632        533.9795805955839        585.6174744531492        584.273809211278         557.6779714304569        596.7897568030332        587.3855153361893        588.7665674697           563.6148650534866        604.1005431154516
18                       636.5999004958358        600.7826252564571        623.5942058312562        622.723318870337         585.7527387868014        612.4721596035315        614.5931472463703        589.5811530732246        579.7283044837047        604.8829452655812        610.7628122703121        602.634099104522         596.1410084360185        569.3264953754777        579.0982682433923        567.8214485161742        559.237706449493         581.1643447123605        586.3322657999912        580.3276308895685        575.9407427057171        557.0136282506395        563.7760803453144        616.1365518649753        614.3554470033225        586.4626017911262        625.9418898575494        618.331637016142         619.2626841809642        592.8210132555367        633.6523152397156
21                       662.1476874740281        626.0793870312827        649.8718072044599        649.3585201795835        610.2460240484261        637.9921380589078        640.4675880367818        614.3383082146598        604.2006211133275        630.391719412671         636.6271121034085        628.5015997504845        621.6523922671695        593.7989654994506        603.852391742207         593.2079230989862        584.3614636827305        607.3058057770643        612.8423067181142        606.9128947789687        602.154445013493         582.2088662623714        589.2310861598727        641.9975074499354        639.8526248119335        610.9135947669919        650.6794105645379        644.787429202081         645.3352719048678        617.8295377516392        658.9369562678853
24                       684.9159248790306        648.6383712747263        673.263746500632         673.0592398214987        632.0370289403082        660.6443008072366        663.4226898211275        636.3470869399569        625.976130661879         653.0358803378988        659.5750052876182        651.4527747221977        644.2992772042159        615.5751082609075        625.8590909764365        615.8587239861871        606.7940789177306        630.600300508099         636.4545339953277        630.5933852236003        625.5136263114832        604.7030699370459        611.9415194925002        664.9445568947405        662.4889567747349        632.6738309678456        672.6739681067721        668.376485105681         668.5935186466693        640.1868059097906        681.5231427276082
27                       705.7912544572239        669.3354937806872        694.6784619158086        694.7424927837892        652.0343187834541        681.3806760742815        684.4221135802223        656.5295972769293        645.9616978160336        673.7664134247561        680.5691851828635        672.4501088180183        665.0324562530365        635.561528173291         646.0400966275781        636.645455721796         627.3956205703226        651.9425662261165        658.0727152317498        652.2726281182413        646.9133902522202        625.3583286362774        632.7805273360129        685.9393289593139        683.2140880467203        652.6481888513491        692.8458931687535        689.9885699466287        689.9182950302992        660.7380985982152        702.2682686465114
