% Model:              brazing.mph
% Version:            COMSOL 5.3.0.223
% Date:               Oct 24 2018, 05:14
% Table:              Table 3 - 
% Time (s)               Temperature (Cp_Al = 1250.8, k_Al = 182.1, sigma_Al = 3.869E7, rho_Al = 1948, Cp_inlet = 617, k_inlet = 127.51, sigma_inlet = 3.8292E7, rho_inlet = 3619.4, Cp_outlet = 950.39, k_outlet = 207.07, sigma_outlet = 3.1152E7, rho_outlet = 2188.1, Cp_outlet_sleeve = 901.03, k_outlet_sleeve = 132.77, sigma_outlet_sleeve = 4.2831E7, rho_outlet_sleeve = 2738.5, Cp_inlet_sleeve = 999.4, k_inlet_sleeve = 122.6, sigma_inlet_sleeve = 4.3572E7, rho_inlet_sleeve = 3225.3) (degC), Point: 55Temperature (Cp_Al = 1250.8, k_Al = 182.1, sigma_Al = 3.869E7, rho_Al = 1948, Cp_inlet = 617, k_inlet = 127.51, sigma_inlet = 3.8292E7, rho_inlet = 3619.4, Cp_outlet = 950.39, k_outlet = 207.07, sigma_outlet = 3.1152E7, rho_outlet = 2188.1, Cp_outlet_sleeve = 901.03, k_outlet_sleeve = 132.77, sigma_outlet_sleeve = 4.2831E7, rho_outlet_sleeve = 2738.5, Cp_inlet_sleeve = 999.4, k_inlet_sleeve = 122.6, sigma_inlet_sleeve = 4.3572E7, rho_inlet_sleeve = 3225.3) (degC), Point: 56Temperature (Cp_Al = 1250.8, k_Al = 182.1, sigma_Al = 3.869E7, rho_Al = 1948, Cp_inlet = 617, k_inlet = 127.51, sigma_inlet = 3.8292E7, rho_inlet = 3619.4, Cp_outlet = 950.39, k_outlet = 207.07, sigma_outlet = 3.1152E7, rho_outlet = 2188.1, Cp_outlet_sleeve = 901.03, k_outlet_sleeve = 132.77, sigma_outlet_sleeve = 4.2831E7, rho_outlet_sleeve = 2738.5, Cp_inlet_sleeve = 999.4, k_inlet_sleeve = 122.6, sigma_inlet_sleeve = 4.3572E7, rho_inlet_sleeve = 3225.3) (degC), Point: 60Temperature (Cp_Al = 1250.8, k_Al = 182.1, sigma_Al = 3.869E7, rho_Al = 1948, Cp_inlet = 617, k_inlet = 127.51, sigma_inlet = 3.8292E7, rho_inlet = 3619.4, Cp_outlet = 950.39, k_outlet = 207.07, sigma_outlet = 3.1152E7, rho_outlet = 2188.1, Cp_outlet_sleeve = 901.03, k_outlet_sleeve = 132.77, sigma_outlet_sleeve = 4.2831E7, rho_outlet_sleeve = 2738.5, Cp_inlet_sleeve = 999.4, k_inlet_sleeve = 122.6, sigma_inlet_sleeve = 4.3572E7, rho_inlet_sleeve = 3225.3) (degC), Point: 69Temperature (Cp_Al = 1250.8, k_Al = 182.1, sigma_Al = 3.869E7, rho_Al = 1948, Cp_inlet = 617, k_inlet = 127.51, sigma_inlet = 3.8292E7, rho_inlet = 3619.4, Cp_outlet = 950.39, k_outlet = 207.07, sigma_outlet = 3.1152E7, rho_outlet = 2188.1, Cp_outlet_sleeve = 901.03, k_outlet_sleeve = 132.77, sigma_outlet_sleeve = 4.2831E7, rho_outlet_sleeve = 2738.5, Cp_inlet_sleeve = 999.4, k_inlet_sleeve = 122.6, sigma_inlet_sleeve = 4.3572E7, rho_inlet_sleeve = 3225.3) (degC), Point: 90Temperature (Cp_Al = 1250.8, k_Al = 182.1, sigma_Al = 3.869E7, rho_Al = 1948, Cp_inlet = 617, k_inlet = 127.51, sigma_inlet = 3.8292E7, rho_inlet = 3619.4, Cp_outlet = 950.39, k_outlet = 207.07, sigma_outlet = 3.1152E7, rho_outlet = 2188.1, Cp_outlet_sleeve = 901.03, k_outlet_sleeve = 132.77, sigma_outlet_sleeve = 4.2831E7, rho_outlet_sleeve = 2738.5, Cp_inlet_sleeve = 999.4, k_inlet_sleeve = 122.6, sigma_inlet_sleeve = 4.3572E7, rho_inlet_sleeve = 3225.3) (degC), Point: 98Temperature (Cp_Al = 1250.8, k_Al = 182.1, sigma_Al = 3.869E7, rho_Al = 1948, Cp_inlet = 617, k_inlet = 127.51, sigma_inlet = 3.8292E7, rho_inlet = 3619.4, Cp_outlet = 950.39, k_outlet = 207.07, sigma_outlet = 3.1152E7, rho_outlet = 2188.1, Cp_outlet_sleeve = 901.03, k_outlet_sleeve = 132.77, sigma_outlet_sleeve = 4.2831E7, rho_outlet_sleeve = 2738.5, Cp_inlet_sleeve = 999.4, k_inlet_sleeve = 122.6, sigma_inlet_sleeve = 4.3572E7, rho_inlet_sleeve = 3225.3) (degC), Point: 102Temperature (Cp_Al = 1250.8, k_Al = 182.1, sigma_Al = 3.869E7, rho_Al = 1948, Cp_inlet = 617, k_inlet = 127.51, sigma_inlet = 3.8292E7, rho_inlet = 3619.4, Cp_outlet = 950.39, k_outlet = 207.07, sigma_outlet = 3.1152E7, rho_outlet = 2188.1, Cp_outlet_sleeve = 901.03, k_outlet_sleeve = 132.77, sigma_outlet_sleeve = 4.2831E7, rho_outlet_sleeve = 2738.5, Cp_inlet_sleeve = 999.4, k_inlet_sleeve = 122.6, sigma_inlet_sleeve = 4.3572E7, rho_inlet_sleeve = 3225.3) (degC), Point: 127Temperature (Cp_Al = 1250.8, k_Al = 182.1, sigma_Al = 3.869E7, rho_Al = 1948, Cp_inlet = 617, k_inlet = 127.51, sigma_inlet = 3.8292E7, rho_inlet = 3619.4, Cp_outlet = 950.39, k_outlet = 207.07, sigma_outlet = 3.1152E7, rho_outlet = 2188.1, Cp_outlet_sleeve = 901.03, k_outlet_sleeve = 132.77, sigma_outlet_sleeve = 4.2831E7, rho_outlet_sleeve = 2738.5, Cp_inlet_sleeve = 999.4, k_inlet_sleeve = 122.6, sigma_inlet_sleeve = 4.3572E7, rho_inlet_sleeve = 3225.3) (degC), Point: 128Temperature (Cp_Al = 1250.8, k_Al = 182.1, sigma_Al = 3.869E7, rho_Al = 1948, Cp_inlet = 617, k_inlet = 127.51, sigma_inlet = 3.8292E7, rho_inlet = 3619.4, Cp_outlet = 950.39, k_outlet = 207.07, sigma_outlet = 3.1152E7, rho_outlet = 2188.1, Cp_outlet_sleeve = 901.03, k_outlet_sleeve = 132.77, sigma_outlet_sleeve = 4.2831E7, rho_outlet_sleeve = 2738.5, Cp_inlet_sleeve = 999.4, k_inlet_sleeve = 122.6, sigma_inlet_sleeve = 4.3572E7, rho_inlet_sleeve = 3225.3) (degC), Point: 134Temperature (Cp_Al = 1250.8, k_Al = 182.1, sigma_Al = 3.869E7, rho_Al = 1948, Cp_inlet = 617, k_inlet = 127.51, sigma_inlet = 3.8292E7, rho_inlet = 3619.4, Cp_outlet = 950.39, k_outlet = 207.07, sigma_outlet = 3.1152E7, rho_outlet = 2188.1, Cp_outlet_sleeve = 901.03, k_outlet_sleeve = 132.77, sigma_outlet_sleeve = 4.2831E7, rho_outlet_sleeve = 2738.5, Cp_inlet_sleeve = 999.4, k_inlet_sleeve = 122.6, sigma_inlet_sleeve = 4.3572E7, rho_inlet_sleeve = 3225.3) (degC), Point: 138Temperature (Cp_Al = 1250.8, k_Al = 182.1, sigma_Al = 3.869E7, rho_Al = 1948, Cp_inlet = 617, k_inlet = 127.51, sigma_inlet = 3.8292E7, rho_inlet = 3619.4, Cp_outlet = 950.39, k_outlet = 207.07, sigma_outlet = 3.1152E7, rho_outlet = 2188.1, Cp_outlet_sleeve = 901.03, k_outlet_sleeve = 132.77, sigma_outlet_sleeve = 4.2831E7, rho_outlet_sleeve = 2738.5, Cp_inlet_sleeve = 999.4, k_inlet_sleeve = 122.6, sigma_inlet_sleeve = 4.3572E7, rho_inlet_sleeve = 3225.3) (degC), Point: 151Temperature (Cp_Al = 1250.8, k_Al = 182.1, sigma_Al = 3.869E7, rho_Al = 1948, Cp_inlet = 617, k_inlet = 127.51, sigma_inlet = 3.8292E7, rho_inlet = 3619.4, Cp_outlet = 950.39, k_outlet = 207.07, sigma_outlet = 3.1152E7, rho_outlet = 2188.1, Cp_outlet_sleeve = 901.03, k_outlet_sleeve = 132.77, sigma_outlet_sleeve = 4.2831E7, rho_outlet_sleeve = 2738.5, Cp_inlet_sleeve = 999.4, k_inlet_sleeve = 122.6, sigma_inlet_sleeve = 4.3572E7, rho_inlet_sleeve = 3225.3) (degC), Point: 154Temperature (Cp_Al = 1250.8, k_Al = 182.1, sigma_Al = 3.869E7, rho_Al = 1948, Cp_inlet = 617, k_inlet = 127.51, sigma_inlet = 3.8292E7, rho_inlet = 3619.4, Cp_outlet = 950.39, k_outlet = 207.07, sigma_outlet = 3.1152E7, rho_outlet = 2188.1, Cp_outlet_sleeve = 901.03, k_outlet_sleeve = 132.77, sigma_outlet_sleeve = 4.2831E7, rho_outlet_sleeve = 2738.5, Cp_inlet_sleeve = 999.4, k_inlet_sleeve = 122.6, sigma_inlet_sleeve = 4.3572E7, rho_inlet_sleeve = 3225.3) (degC), Point: 159Temperature (Cp_Al = 1250.8, k_Al = 182.1, sigma_Al = 3.869E7, rho_Al = 1948, Cp_inlet = 617, k_inlet = 127.51, sigma_inlet = 3.8292E7, rho_inlet = 3619.4, Cp_outlet = 950.39, k_outlet = 207.07, sigma_outlet = 3.1152E7, rho_outlet = 2188.1, Cp_outlet_sleeve = 901.03, k_outlet_sleeve = 132.77, sigma_outlet_sleeve = 4.2831E7, rho_outlet_sleeve = 2738.5, Cp_inlet_sleeve = 999.4, k_inlet_sleeve = 122.6, sigma_inlet_sleeve = 4.3572E7, rho_inlet_sleeve = 3225.3) (degC), Point: 163Temperature (Cp_Al = 1250.8, k_Al = 182.1, sigma_Al = 3.869E7, rho_Al = 1948, Cp_inlet = 617, k_inlet = 127.51, sigma_inlet = 3.8292E7, rho_inlet = 3619.4, Cp_outlet = 950.39, k_outlet = 207.07, sigma_outlet = 3.1152E7, rho_outlet = 2188.1, Cp_outlet_sleeve = 901.03, k_outlet_sleeve = 132.77, sigma_outlet_sleeve = 4.2831E7, rho_outlet_sleeve = 2738.5, Cp_inlet_sleeve = 999.4, k_inlet_sleeve = 122.6, sigma_inlet_sleeve = 4.3572E7, rho_inlet_sleeve = 3225.3) (degC), Point: 167Temperature (Cp_Al = 1250.8, k_Al = 182.1, sigma_Al = 3.869E7, rho_Al = 1948, Cp_inlet = 617, k_inlet = 127.51, sigma_inlet = 3.8292E7, rho_inlet = 3619.4, Cp_outlet = 950.39, k_outlet = 207.07, sigma_outlet = 3.1152E7, rho_outlet = 2188.1, Cp_outlet_sleeve = 901.03, k_outlet_sleeve = 132.77, sigma_outlet_sleeve = 4.2831E7, rho_outlet_sleeve = 2738.5, Cp_inlet_sleeve = 999.4, k_inlet_sleeve = 122.6, sigma_inlet_sleeve = 4.3572E7, rho_inlet_sleeve = 3225.3) (degC), Point: 168Temperature (Cp_Al = 1250.8, k_Al = 182.1, sigma_Al = 3.869E7, rho_Al = 1948, Cp_inlet = 617, k_inlet = 127.51, sigma_inlet = 3.8292E7, rho_inlet = 3619.4, Cp_outlet = 950.39, k_outlet = 207.07, sigma_outlet = 3.1152E7, rho_outlet = 2188.1, Cp_outlet_sleeve = 901.03, k_outlet_sleeve = 132.77, sigma_outlet_sleeve = 4.2831E7, rho_outlet_sleeve = 2738.5, Cp_inlet_sleeve = 999.4, k_inlet_sleeve = 122.6, sigma_inlet_sleeve = 4.3572E7, rho_inlet_sleeve = 3225.3) (degC), Point: 172Temperature (Cp_Al = 1250.8, k_Al = 182.1, sigma_Al = 3.869E7, rho_Al = 1948, Cp_inlet = 617, k_inlet = 127.51, sigma_inlet = 3.8292E7, rho_inlet = 3619.4, Cp_outlet = 950.39, k_outlet = 207.07, sigma_outlet = 3.1152E7, rho_outlet = 2188.1, Cp_outlet_sleeve = 901.03, k_outlet_sleeve = 132.77, sigma_outlet_sleeve = 4.2831E7, rho_outlet_sleeve = 2738.5, Cp_inlet_sleeve = 999.4, k_inlet_sleeve = 122.6, sigma_inlet_sleeve = 4.3572E7, rho_inlet_sleeve = 3225.3) (degC), Point: 181Temperature (Cp_Al = 1250.8, k_Al = 182.1, sigma_Al = 3.869E7, rho_Al = 1948, Cp_inlet = 617, k_inlet = 127.51, sigma_inlet = 3.8292E7, rho_inlet = 3619.4, Cp_outlet = 950.39, k_outlet = 207.07, sigma_outlet = 3.1152E7, rho_outlet = 2188.1, Cp_outlet_sleeve = 901.03, k_outlet_sleeve = 132.77, sigma_outlet_sleeve = 4.2831E7, rho_outlet_sleeve = 2738.5, Cp_inlet_sleeve = 999.4, k_inlet_sleeve = 122.6, sigma_inlet_sleeve = 4.3572E7, rho_inlet_sleeve = 3225.3) (degC), Point: 201Temperature (Cp_Al = 1250.8, k_Al = 182.1, sigma_Al = 3.869E7, rho_Al = 1948, Cp_inlet = 617, k_inlet = 127.51, sigma_inlet = 3.8292E7, rho_inlet = 3619.4, Cp_outlet = 950.39, k_outlet = 207.07, sigma_outlet = 3.1152E7, rho_outlet = 2188.1, Cp_outlet_sleeve = 901.03, k_outlet_sleeve = 132.77, sigma_outlet_sleeve = 4.2831E7, rho_outlet_sleeve = 2738.5, Cp_inlet_sleeve = 999.4, k_inlet_sleeve = 122.6, sigma_inlet_sleeve = 4.3572E7, rho_inlet_sleeve = 3225.3) (degC), Point: 210Temperature (Cp_Al = 1250.8, k_Al = 182.1, sigma_Al = 3.869E7, rho_Al = 1948, Cp_inlet = 617, k_inlet = 127.51, sigma_inlet = 3.8292E7, rho_inlet = 3619.4, Cp_outlet = 950.39, k_outlet = 207.07, sigma_outlet = 3.1152E7, rho_outlet = 2188.1, Cp_outlet_sleeve = 901.03, k_outlet_sleeve = 132.77, sigma_outlet_sleeve = 4.2831E7, rho_outlet_sleeve = 2738.5, Cp_inlet_sleeve = 999.4, k_inlet_sleeve = 122.6, sigma_inlet_sleeve = 4.3572E7, rho_inlet_sleeve = 3225.3) (degC), Point: 213Temperature (Cp_Al = 1250.8, k_Al = 182.1, sigma_Al = 3.869E7, rho_Al = 1948, Cp_inlet = 617, k_inlet = 127.51, sigma_inlet = 3.8292E7, rho_inlet = 3619.4, Cp_outlet = 950.39, k_outlet = 207.07, sigma_outlet = 3.1152E7, rho_outlet = 2188.1, Cp_outlet_sleeve = 901.03, k_outlet_sleeve = 132.77, sigma_outlet_sleeve = 4.2831E7, rho_outlet_sleeve = 2738.5, Cp_inlet_sleeve = 999.4, k_inlet_sleeve = 122.6, sigma_inlet_sleeve = 4.3572E7, rho_inlet_sleeve = 3225.3) (degC), Point: 215Temperature (Cp_Al = 1250.8, k_Al = 182.1, sigma_Al = 3.869E7, rho_Al = 1948, Cp_inlet = 617, k_inlet = 127.51, sigma_inlet = 3.8292E7, rho_inlet = 3619.4, Cp_outlet = 950.39, k_outlet = 207.07, sigma_outlet = 3.1152E7, rho_outlet = 2188.1, Cp_outlet_sleeve = 901.03, k_outlet_sleeve = 132.77, sigma_outlet_sleeve = 4.2831E7, rho_outlet_sleeve = 2738.5, Cp_inlet_sleeve = 999.4, k_inlet_sleeve = 122.6, sigma_inlet_sleeve = 4.3572E7, rho_inlet_sleeve = 3225.3) (degC), Point: 229Temperature (Cp_Al = 1250.8, k_Al = 182.1, sigma_Al = 3.869E7, rho_Al = 1948, Cp_inlet = 617, k_inlet = 127.51, sigma_inlet = 3.8292E7, rho_inlet = 3619.4, Cp_outlet = 950.39, k_outlet = 207.07, sigma_outlet = 3.1152E7, rho_outlet = 2188.1, Cp_outlet_sleeve = 901.03, k_outlet_sleeve = 132.77, sigma_outlet_sleeve = 4.2831E7, rho_outlet_sleeve = 2738.5, Cp_inlet_sleeve = 999.4, k_inlet_sleeve = 122.6, sigma_inlet_sleeve = 4.3572E7, rho_inlet_sleeve = 3225.3) (degC), Point: 232Temperature (Cp_Al = 1250.8, k_Al = 182.1, sigma_Al = 3.869E7, rho_Al = 1948, Cp_inlet = 617, k_inlet = 127.51, sigma_inlet = 3.8292E7, rho_inlet = 3619.4, Cp_outlet = 950.39, k_outlet = 207.07, sigma_outlet = 3.1152E7, rho_outlet = 2188.1, Cp_outlet_sleeve = 901.03, k_outlet_sleeve = 132.77, sigma_outlet_sleeve = 4.2831E7, rho_outlet_sleeve = 2738.5, Cp_inlet_sleeve = 999.4, k_inlet_sleeve = 122.6, sigma_inlet_sleeve = 4.3572E7, rho_inlet_sleeve = 3225.3) (degC), Point: 239Temperature (Cp_Al = 1250.8, k_Al = 182.1, sigma_Al = 3.869E7, rho_Al = 1948, Cp_inlet = 617, k_inlet = 127.51, sigma_inlet = 3.8292E7, rho_inlet = 3619.4, Cp_outlet = 950.39, k_outlet = 207.07, sigma_outlet = 3.1152E7, rho_outlet = 2188.1, Cp_outlet_sleeve = 901.03, k_outlet_sleeve = 132.77, sigma_outlet_sleeve = 4.2831E7, rho_outlet_sleeve = 2738.5, Cp_inlet_sleeve = 999.4, k_inlet_sleeve = 122.6, sigma_inlet_sleeve = 4.3572E7, rho_inlet_sleeve = 3225.3) (degC), Point: 252Temperature (Cp_Al = 1250.8, k_Al = 182.1, sigma_Al = 3.869E7, rho_Al = 1948, Cp_inlet = 617, k_inlet = 127.51, sigma_inlet = 3.8292E7, rho_inlet = 3619.4, Cp_outlet = 950.39, k_outlet = 207.07, sigma_outlet = 3.1152E7, rho_outlet = 2188.1, Cp_outlet_sleeve = 901.03, k_outlet_sleeve = 132.77, sigma_outlet_sleeve = 4.2831E7, rho_outlet_sleeve = 2738.5, Cp_inlet_sleeve = 999.4, k_inlet_sleeve = 122.6, sigma_inlet_sleeve = 4.3572E7, rho_inlet_sleeve = 3225.3) (degC), Point: 261Temperature (Cp_Al = 1250.8, k_Al = 182.1, sigma_Al = 3.869E7, rho_Al = 1948, Cp_inlet = 617, k_inlet = 127.51, sigma_inlet = 3.8292E7, rho_inlet = 3619.4, Cp_outlet = 950.39, k_outlet = 207.07, sigma_outlet = 3.1152E7, rho_outlet = 2188.1, Cp_outlet_sleeve = 901.03, k_outlet_sleeve = 132.77, sigma_outlet_sleeve = 4.2831E7, rho_outlet_sleeve = 2738.5, Cp_inlet_sleeve = 999.4, k_inlet_sleeve = 122.6, sigma_inlet_sleeve = 4.3572E7, rho_inlet_sleeve = 3225.3) (degC), Point: 270Temperature (Cp_Al = 1250.8, k_Al = 182.1, sigma_Al = 3.869E7, rho_Al = 1948, Cp_inlet = 617, k_inlet = 127.51, sigma_inlet = 3.8292E7, rho_inlet = 3619.4, Cp_outlet = 950.39, k_outlet = 207.07, sigma_outlet = 3.1152E7, rho_outlet = 2188.1, Cp_outlet_sleeve = 901.03, k_outlet_sleeve = 132.77, sigma_outlet_sleeve = 4.2831E7, rho_outlet_sleeve = 2738.5, Cp_inlet_sleeve = 999.4, k_inlet_sleeve = 122.6, sigma_inlet_sleeve = 4.3572E7, rho_inlet_sleeve = 3225.3) (degC), Point: 273Temperature (Cp_Al = 1250.8, k_Al = 182.1, sigma_Al = 3.869E7, rho_Al = 1948, Cp_inlet = 617, k_inlet = 127.51, sigma_inlet = 3.8292E7, rho_inlet = 3619.4, Cp_outlet = 950.39, k_outlet = 207.07, sigma_outlet = 3.1152E7, rho_outlet = 2188.1, Cp_outlet_sleeve = 901.03, k_outlet_sleeve = 132.77, sigma_outlet_sleeve = 4.2831E7, rho_outlet_sleeve = 2738.5, Cp_inlet_sleeve = 999.4, k_inlet_sleeve = 122.6, sigma_inlet_sleeve = 4.3572E7, rho_inlet_sleeve = 3225.3) (degC), Point: 275
0                        21.614788773783232       21.01018551042978        21.131806128447806       21.009119340374355       21.0102755746222         21.106836175708168       21.008592386875932       21.02029924143386        21.001054161012746       21.024249161408363       21.001205967854787       21.000634827865213       21.009389329428757       21.00009245573807        21.005934510956763       21.020074167729206       21.000055145771057       21.011512451547674       21.000747744703176       21.00029391378962        21.001744422418028       21.000154939925665       21.00023994849971        21.008600022592987       21.117200802966693       21.009847154903923       21.429845126830173       21.009040536263          21.14470356110928        21.013766212897735       21.684128001294425
3                        305.79362707617634       263.4458410332164        271.94073696865314       267.0580694188019        245.04168736151507       259.37000509142524       258.34277514819905       243.89235602998792       238.1763260521563        251.43471649852825       254.04509208740137       244.3631981805139        241.16270204896944       225.63005054765625       231.3767925491175        233.3981679542888        228.43126481210243       238.35867076834046       240.0598230367342        234.05622411751773       232.73316149521276       224.89576655786072       227.75481424266422       260.907834085696         262.36000910766086       247.17332332095214       289.54032513452444       268.7675185914695        274.0375344436585        263.45859196394827       311.5407823754674
6                        430.71922908515523       386.90735512200524       398.22956035666186       393.74743418711375       378.9078336038748        397.7870122258944        397.5673513764267        379.97466130874966       371.9049413929705        389.7609030691849        393.1822216038138        383.47190819980665       379.4645154762188        359.3303838094298        367.4197350357073        357.40962178556754       350.9207337973394        363.82121683857963       365.9504862963512        359.8249094642148        358.1218639662227        347.4606086177514        351.790841693737         399.93708009339537       400.56268798747044       380.7345016679634        425.4691460474959        393.66463942976065       398.5216859742022        384.9243401067415        434.5585557247897
9                        505.9566388456818        461.1782810289084        474.94104605095697       471.0570157019788        460.9915453206456        483.2408802856128        483.81317513225645       463.44656799617894       453.89188817392676       475.1525264651726        479.3686840387452        469.6666642048266        464.86745464932994       441.32958867794775       450.89369006921595       432.0267954817276        424.53200513025774       439.9851091562556        442.73884079415905       436.7053082009512        434.4007381259636        421.26291963863616       426.5725064451202        486.0814766376394        485.8962554119853        462.6362632533094        508.8633047676183        470.0049521892521        474.23291735672285       458.0200333308869        508.688593735272
12                       557.5586681848052        512.0879569217284        527.8418130302342        524.5271557796186        515.7078115191423        540.4683938946026        541.7163113886801        519.1027220736985        508.55689294235356       532.3498759051604        537.2429002028085        527.5313154324809        522.0552899744112        495.97870462274193       506.5264651930104        483.27748870761616       475.06425983613417       492.5841959534258        495.92681654505714       489.9711916749558        487.08332647538384       471.90487392940156       477.9203053400297        543.9250195179108        543.0478987123266        517.2333349879169        564.4560131210025        522.9781850769564        526.6022718172337        508.25315933664797       559.6646712730072
15                       597.6217122404381        551.609609087668         569.027274647856         566.2198326695678        556.1140402837209        582.779547365366         584.5745575771061        560.1782123083912        548.9269339957946        574.6402220259369        580.081275378504         570.3667604279566        564.342554683294         536.3411096250044        547.5882187942149        523.1145643832346        514.3412668897823        533.5805680939483        537.4456960620072        531.5741549314894        528.1633070993776        511.2739284544822        517.8423013762646        586.7469837712054        585.3095054575152        557.5588666712456        605.4895672761945        564.4010861034616        567.485994448798         547.3549561521614        599.3464788291968
18                       630.2318058436609        583.783623541834         602.6090855475162        600.2492853213741        587.1687434628834        615.2935263145315        617.5306047191575        591.7170458457102        579.9561774291705        607.140043652952         613.0238671635717        603.3099794202174        596.8427350794218        567.3674940422275        579.1191323842835        555.574412081842         546.35128704138          567.040329933776         571.3653265013478        565.5802679957296        561.7064959737747        543.3679660047701        550.3817080034441        619.6819497399458        617.7916248027205        588.5591993783091        637.0007989565731        598.2937481254759        600.9027697408562        579.2684579358034        631.7256204748394
21                       658.1834561607444        611.3733656796633        631.4019124869201        629.4335270234365        612.474444640935         641.7486426378327        644.3479029388818        617.3868429360889        605.243443255049         633.5852767036018        639.8318221337928        630.120458795713         623.2901922250219        592.6547528944171        604.7846208771674        583.4197025962803        573.8241596035177        595.749036384642         600.4753959493771        594.7739750541887        590.4951770378901        570.919040075834         578.3018479684109        646.4873704548964        644.2260093012176        613.8275161301268        662.6521690968905        627.4111489765887        629.604609096811         606.6901406378635        659.532091639851
24                       683.0182292052021        635.9028719400362        656.9625859327268        655.333574157866         634.1921656481787        664.4001467534297        667.3022739174579        639.3898114054246        626.9474049815058        656.2296759835299        662.7795109255469        653.0716321001479        645.937783386141         614.3603574903228        626.7855075148747        608.1751478282268        598.2660774048203        621.2482828490676        626.3221919180961        620.6980757814888        616.0682510909506        595.4327728778024        603.126255130157         669.4354574088949        666.8638344945454        635.5189267758262        684.6426228190168        653.2807141997461        655.1145057178475        631.106524709541         684.2716618257505
27                       705.5838250115794        658.2094926901697        680.1517382906057        678.814828986296         653.5974224571929        684.5852162038265        687.7456968861622        659.0267359774914        646.3421482223498        676.409525117284         683.2180457184891        673.5140181890554        666.1212094957777        633.757561980047         646.4216327508249        630.6794019771021        620.5047436202399        644.3906846399925        649.763455703585         644.2086798030733        639.2769417726043        617.736078508098         625.6926139443913        689.8760301434207        687.039774841748         654.9052430027635        704.2708641109994        676.7505346950696        678.275281831527         653.3340984580653        706.77241205378
