% Model:              brazing.mph
% Version:            COMSOL 5.3.0.223
% Date:               Oct 24 2018, 04:55
% Table:              Table 3 - 
% Time (s)               Temperature (Cp_Al = 828.97, k_Al = 126.34, sigma_Al = 5.1966E7, rho_Al = 2477, Cp_inlet = 732.29, k_inlet = 168.63, sigma_inlet = 2.8659E7, rho_inlet = 2305, Cp_outlet = 949.26, k_outlet = 134.12, sigma_outlet = 4.6207E7, rho_outlet = 2136.8, Cp_outlet_sleeve = 620.95, k_outlet_sleeve = 156.6, sigma_outlet_sleeve = 3.426E7, rho_outlet_sleeve = 2819.2, Cp_inlet_sleeve = 876.71, k_inlet_sleeve = 129.53, sigma_inlet_sleeve = 5.2534E7, rho_inlet_sleeve = 2820) (degC), Point: 55Temperature (Cp_Al = 828.97, k_Al = 126.34, sigma_Al = 5.1966E7, rho_Al = 2477, Cp_inlet = 732.29, k_inlet = 168.63, sigma_inlet = 2.8659E7, rho_inlet = 2305, Cp_outlet = 949.26, k_outlet = 134.12, sigma_outlet = 4.6207E7, rho_outlet = 2136.8, Cp_outlet_sleeve = 620.95, k_outlet_sleeve = 156.6, sigma_outlet_sleeve = 3.426E7, rho_outlet_sleeve = 2819.2, Cp_inlet_sleeve = 876.71, k_inlet_sleeve = 129.53, sigma_inlet_sleeve = 5.2534E7, rho_inlet_sleeve = 2820) (degC), Point: 56Temperature (Cp_Al = 828.97, k_Al = 126.34, sigma_Al = 5.1966E7, rho_Al = 2477, Cp_inlet = 732.29, k_inlet = 168.63, sigma_inlet = 2.8659E7, rho_inlet = 2305, Cp_outlet = 949.26, k_outlet = 134.12, sigma_outlet = 4.6207E7, rho_outlet = 2136.8, Cp_outlet_sleeve = 620.95, k_outlet_sleeve = 156.6, sigma_outlet_sleeve = 3.426E7, rho_outlet_sleeve = 2819.2, Cp_inlet_sleeve = 876.71, k_inlet_sleeve = 129.53, sigma_inlet_sleeve = 5.2534E7, rho_inlet_sleeve = 2820) (degC), Point: 60Temperature (Cp_Al = 828.97, k_Al = 126.34, sigma_Al = 5.1966E7, rho_Al = 2477, Cp_inlet = 732.29, k_inlet = 168.63, sigma_inlet = 2.8659E7, rho_inlet = 2305, Cp_outlet = 949.26, k_outlet = 134.12, sigma_outlet = 4.6207E7, rho_outlet = 2136.8, Cp_outlet_sleeve = 620.95, k_outlet_sleeve = 156.6, sigma_outlet_sleeve = 3.426E7, rho_outlet_sleeve = 2819.2, Cp_inlet_sleeve = 876.71, k_inlet_sleeve = 129.53, sigma_inlet_sleeve = 5.2534E7, rho_inlet_sleeve = 2820) (degC), Point: 69Temperature (Cp_Al = 828.97, k_Al = 126.34, sigma_Al = 5.1966E7, rho_Al = 2477, Cp_inlet = 732.29, k_inlet = 168.63, sigma_inlet = 2.8659E7, rho_inlet = 2305, Cp_outlet = 949.26, k_outlet = 134.12, sigma_outlet = 4.6207E7, rho_outlet = 2136.8, Cp_outlet_sleeve = 620.95, k_outlet_sleeve = 156.6, sigma_outlet_sleeve = 3.426E7, rho_outlet_sleeve = 2819.2, Cp_inlet_sleeve = 876.71, k_inlet_sleeve = 129.53, sigma_inlet_sleeve = 5.2534E7, rho_inlet_sleeve = 2820) (degC), Point: 90Temperature (Cp_Al = 828.97, k_Al = 126.34, sigma_Al = 5.1966E7, rho_Al = 2477, Cp_inlet = 732.29, k_inlet = 168.63, sigma_inlet = 2.8659E7, rho_inlet = 2305, Cp_outlet = 949.26, k_outlet = 134.12, sigma_outlet = 4.6207E7, rho_outlet = 2136.8, Cp_outlet_sleeve = 620.95, k_outlet_sleeve = 156.6, sigma_outlet_sleeve = 3.426E7, rho_outlet_sleeve = 2819.2, Cp_inlet_sleeve = 876.71, k_inlet_sleeve = 129.53, sigma_inlet_sleeve = 5.2534E7, rho_inlet_sleeve = 2820) (degC), Point: 98Temperature (Cp_Al = 828.97, k_Al = 126.34, sigma_Al = 5.1966E7, rho_Al = 2477, Cp_inlet = 732.29, k_inlet = 168.63, sigma_inlet = 2.8659E7, rho_inlet = 2305, Cp_outlet = 949.26, k_outlet = 134.12, sigma_outlet = 4.6207E7, rho_outlet = 2136.8, Cp_outlet_sleeve = 620.95, k_outlet_sleeve = 156.6, sigma_outlet_sleeve = 3.426E7, rho_outlet_sleeve = 2819.2, Cp_inlet_sleeve = 876.71, k_inlet_sleeve = 129.53, sigma_inlet_sleeve = 5.2534E7, rho_inlet_sleeve = 2820) (degC), Point: 102Temperature (Cp_Al = 828.97, k_Al = 126.34, sigma_Al = 5.1966E7, rho_Al = 2477, Cp_inlet = 732.29, k_inlet = 168.63, sigma_inlet = 2.8659E7, rho_inlet = 2305, Cp_outlet = 949.26, k_outlet = 134.12, sigma_outlet = 4.6207E7, rho_outlet = 2136.8, Cp_outlet_sleeve = 620.95, k_outlet_sleeve = 156.6, sigma_outlet_sleeve = 3.426E7, rho_outlet_sleeve = 2819.2, Cp_inlet_sleeve = 876.71, k_inlet_sleeve = 129.53, sigma_inlet_sleeve = 5.2534E7, rho_inlet_sleeve = 2820) (degC), Point: 127Temperature (Cp_Al = 828.97, k_Al = 126.34, sigma_Al = 5.1966E7, rho_Al = 2477, Cp_inlet = 732.29, k_inlet = 168.63, sigma_inlet = 2.8659E7, rho_inlet = 2305, Cp_outlet = 949.26, k_outlet = 134.12, sigma_outlet = 4.6207E7, rho_outlet = 2136.8, Cp_outlet_sleeve = 620.95, k_outlet_sleeve = 156.6, sigma_outlet_sleeve = 3.426E7, rho_outlet_sleeve = 2819.2, Cp_inlet_sleeve = 876.71, k_inlet_sleeve = 129.53, sigma_inlet_sleeve = 5.2534E7, rho_inlet_sleeve = 2820) (degC), Point: 128Temperature (Cp_Al = 828.97, k_Al = 126.34, sigma_Al = 5.1966E7, rho_Al = 2477, Cp_inlet = 732.29, k_inlet = 168.63, sigma_inlet = 2.8659E7, rho_inlet = 2305, Cp_outlet = 949.26, k_outlet = 134.12, sigma_outlet = 4.6207E7, rho_outlet = 2136.8, Cp_outlet_sleeve = 620.95, k_outlet_sleeve = 156.6, sigma_outlet_sleeve = 3.426E7, rho_outlet_sleeve = 2819.2, Cp_inlet_sleeve = 876.71, k_inlet_sleeve = 129.53, sigma_inlet_sleeve = 5.2534E7, rho_inlet_sleeve = 2820) (degC), Point: 134Temperature (Cp_Al = 828.97, k_Al = 126.34, sigma_Al = 5.1966E7, rho_Al = 2477, Cp_inlet = 732.29, k_inlet = 168.63, sigma_inlet = 2.8659E7, rho_inlet = 2305, Cp_outlet = 949.26, k_outlet = 134.12, sigma_outlet = 4.6207E7, rho_outlet = 2136.8, Cp_outlet_sleeve = 620.95, k_outlet_sleeve = 156.6, sigma_outlet_sleeve = 3.426E7, rho_outlet_sleeve = 2819.2, Cp_inlet_sleeve = 876.71, k_inlet_sleeve = 129.53, sigma_inlet_sleeve = 5.2534E7, rho_inlet_sleeve = 2820) (degC), Point: 138Temperature (Cp_Al = 828.97, k_Al = 126.34, sigma_Al = 5.1966E7, rho_Al = 2477, Cp_inlet = 732.29, k_inlet = 168.63, sigma_inlet = 2.8659E7, rho_inlet = 2305, Cp_outlet = 949.26, k_outlet = 134.12, sigma_outlet = 4.6207E7, rho_outlet = 2136.8, Cp_outlet_sleeve = 620.95, k_outlet_sleeve = 156.6, sigma_outlet_sleeve = 3.426E7, rho_outlet_sleeve = 2819.2, Cp_inlet_sleeve = 876.71, k_inlet_sleeve = 129.53, sigma_inlet_sleeve = 5.2534E7, rho_inlet_sleeve = 2820) (degC), Point: 151Temperature (Cp_Al = 828.97, k_Al = 126.34, sigma_Al = 5.1966E7, rho_Al = 2477, Cp_inlet = 732.29, k_inlet = 168.63, sigma_inlet = 2.8659E7, rho_inlet = 2305, Cp_outlet = 949.26, k_outlet = 134.12, sigma_outlet = 4.6207E7, rho_outlet = 2136.8, Cp_outlet_sleeve = 620.95, k_outlet_sleeve = 156.6, sigma_outlet_sleeve = 3.426E7, rho_outlet_sleeve = 2819.2, Cp_inlet_sleeve = 876.71, k_inlet_sleeve = 129.53, sigma_inlet_sleeve = 5.2534E7, rho_inlet_sleeve = 2820) (degC), Point: 154Temperature (Cp_Al = 828.97, k_Al = 126.34, sigma_Al = 5.1966E7, rho_Al = 2477, Cp_inlet = 732.29, k_inlet = 168.63, sigma_inlet = 2.8659E7, rho_inlet = 2305, Cp_outlet = 949.26, k_outlet = 134.12, sigma_outlet = 4.6207E7, rho_outlet = 2136.8, Cp_outlet_sleeve = 620.95, k_outlet_sleeve = 156.6, sigma_outlet_sleeve = 3.426E7, rho_outlet_sleeve = 2819.2, Cp_inlet_sleeve = 876.71, k_inlet_sleeve = 129.53, sigma_inlet_sleeve = 5.2534E7, rho_inlet_sleeve = 2820) (degC), Point: 159Temperature (Cp_Al = 828.97, k_Al = 126.34, sigma_Al = 5.1966E7, rho_Al = 2477, Cp_inlet = 732.29, k_inlet = 168.63, sigma_inlet = 2.8659E7, rho_inlet = 2305, Cp_outlet = 949.26, k_outlet = 134.12, sigma_outlet = 4.6207E7, rho_outlet = 2136.8, Cp_outlet_sleeve = 620.95, k_outlet_sleeve = 156.6, sigma_outlet_sleeve = 3.426E7, rho_outlet_sleeve = 2819.2, Cp_inlet_sleeve = 876.71, k_inlet_sleeve = 129.53, sigma_inlet_sleeve = 5.2534E7, rho_inlet_sleeve = 2820) (degC), Point: 163Temperature (Cp_Al = 828.97, k_Al = 126.34, sigma_Al = 5.1966E7, rho_Al = 2477, Cp_inlet = 732.29, k_inlet = 168.63, sigma_inlet = 2.8659E7, rho_inlet = 2305, Cp_outlet = 949.26, k_outlet = 134.12, sigma_outlet = 4.6207E7, rho_outlet = 2136.8, Cp_outlet_sleeve = 620.95, k_outlet_sleeve = 156.6, sigma_outlet_sleeve = 3.426E7, rho_outlet_sleeve = 2819.2, Cp_inlet_sleeve = 876.71, k_inlet_sleeve = 129.53, sigma_inlet_sleeve = 5.2534E7, rho_inlet_sleeve = 2820) (degC), Point: 167Temperature (Cp_Al = 828.97, k_Al = 126.34, sigma_Al = 5.1966E7, rho_Al = 2477, Cp_inlet = 732.29, k_inlet = 168.63, sigma_inlet = 2.8659E7, rho_inlet = 2305, Cp_outlet = 949.26, k_outlet = 134.12, sigma_outlet = 4.6207E7, rho_outlet = 2136.8, Cp_outlet_sleeve = 620.95, k_outlet_sleeve = 156.6, sigma_outlet_sleeve = 3.426E7, rho_outlet_sleeve = 2819.2, Cp_inlet_sleeve = 876.71, k_inlet_sleeve = 129.53, sigma_inlet_sleeve = 5.2534E7, rho_inlet_sleeve = 2820) (degC), Point: 168Temperature (Cp_Al = 828.97, k_Al = 126.34, sigma_Al = 5.1966E7, rho_Al = 2477, Cp_inlet = 732.29, k_inlet = 168.63, sigma_inlet = 2.8659E7, rho_inlet = 2305, Cp_outlet = 949.26, k_outlet = 134.12, sigma_outlet = 4.6207E7, rho_outlet = 2136.8, Cp_outlet_sleeve = 620.95, k_outlet_sleeve = 156.6, sigma_outlet_sleeve = 3.426E7, rho_outlet_sleeve = 2819.2, Cp_inlet_sleeve = 876.71, k_inlet_sleeve = 129.53, sigma_inlet_sleeve = 5.2534E7, rho_inlet_sleeve = 2820) (degC), Point: 172Temperature (Cp_Al = 828.97, k_Al = 126.34, sigma_Al = 5.1966E7, rho_Al = 2477, Cp_inlet = 732.29, k_inlet = 168.63, sigma_inlet = 2.8659E7, rho_inlet = 2305, Cp_outlet = 949.26, k_outlet = 134.12, sigma_outlet = 4.6207E7, rho_outlet = 2136.8, Cp_outlet_sleeve = 620.95, k_outlet_sleeve = 156.6, sigma_outlet_sleeve = 3.426E7, rho_outlet_sleeve = 2819.2, Cp_inlet_sleeve = 876.71, k_inlet_sleeve = 129.53, sigma_inlet_sleeve = 5.2534E7, rho_inlet_sleeve = 2820) (degC), Point: 181Temperature (Cp_Al = 828.97, k_Al = 126.34, sigma_Al = 5.1966E7, rho_Al = 2477, Cp_inlet = 732.29, k_inlet = 168.63, sigma_inlet = 2.8659E7, rho_inlet = 2305, Cp_outlet = 949.26, k_outlet = 134.12, sigma_outlet = 4.6207E7, rho_outlet = 2136.8, Cp_outlet_sleeve = 620.95, k_outlet_sleeve = 156.6, sigma_outlet_sleeve = 3.426E7, rho_outlet_sleeve = 2819.2, Cp_inlet_sleeve = 876.71, k_inlet_sleeve = 129.53, sigma_inlet_sleeve = 5.2534E7, rho_inlet_sleeve = 2820) (degC), Point: 201Temperature (Cp_Al = 828.97, k_Al = 126.34, sigma_Al = 5.1966E7, rho_Al = 2477, Cp_inlet = 732.29, k_inlet = 168.63, sigma_inlet = 2.8659E7, rho_inlet = 2305, Cp_outlet = 949.26, k_outlet = 134.12, sigma_outlet = 4.6207E7, rho_outlet = 2136.8, Cp_outlet_sleeve = 620.95, k_outlet_sleeve = 156.6, sigma_outlet_sleeve = 3.426E7, rho_outlet_sleeve = 2819.2, Cp_inlet_sleeve = 876.71, k_inlet_sleeve = 129.53, sigma_inlet_sleeve = 5.2534E7, rho_inlet_sleeve = 2820) (degC), Point: 210Temperature (Cp_Al = 828.97, k_Al = 126.34, sigma_Al = 5.1966E7, rho_Al = 2477, Cp_inlet = 732.29, k_inlet = 168.63, sigma_inlet = 2.8659E7, rho_inlet = 2305, Cp_outlet = 949.26, k_outlet = 134.12, sigma_outlet = 4.6207E7, rho_outlet = 2136.8, Cp_outlet_sleeve = 620.95, k_outlet_sleeve = 156.6, sigma_outlet_sleeve = 3.426E7, rho_outlet_sleeve = 2819.2, Cp_inlet_sleeve = 876.71, k_inlet_sleeve = 129.53, sigma_inlet_sleeve = 5.2534E7, rho_inlet_sleeve = 2820) (degC), Point: 213Temperature (Cp_Al = 828.97, k_Al = 126.34, sigma_Al = 5.1966E7, rho_Al = 2477, Cp_inlet = 732.29, k_inlet = 168.63, sigma_inlet = 2.8659E7, rho_inlet = 2305, Cp_outlet = 949.26, k_outlet = 134.12, sigma_outlet = 4.6207E7, rho_outlet = 2136.8, Cp_outlet_sleeve = 620.95, k_outlet_sleeve = 156.6, sigma_outlet_sleeve = 3.426E7, rho_outlet_sleeve = 2819.2, Cp_inlet_sleeve = 876.71, k_inlet_sleeve = 129.53, sigma_inlet_sleeve = 5.2534E7, rho_inlet_sleeve = 2820) (degC), Point: 215Temperature (Cp_Al = 828.97, k_Al = 126.34, sigma_Al = 5.1966E7, rho_Al = 2477, Cp_inlet = 732.29, k_inlet = 168.63, sigma_inlet = 2.8659E7, rho_inlet = 2305, Cp_outlet = 949.26, k_outlet = 134.12, sigma_outlet = 4.6207E7, rho_outlet = 2136.8, Cp_outlet_sleeve = 620.95, k_outlet_sleeve = 156.6, sigma_outlet_sleeve = 3.426E7, rho_outlet_sleeve = 2819.2, Cp_inlet_sleeve = 876.71, k_inlet_sleeve = 129.53, sigma_inlet_sleeve = 5.2534E7, rho_inlet_sleeve = 2820) (degC), Point: 229Temperature (Cp_Al = 828.97, k_Al = 126.34, sigma_Al = 5.1966E7, rho_Al = 2477, Cp_inlet = 732.29, k_inlet = 168.63, sigma_inlet = 2.8659E7, rho_inlet = 2305, Cp_outlet = 949.26, k_outlet = 134.12, sigma_outlet = 4.6207E7, rho_outlet = 2136.8, Cp_outlet_sleeve = 620.95, k_outlet_sleeve = 156.6, sigma_outlet_sleeve = 3.426E7, rho_outlet_sleeve = 2819.2, Cp_inlet_sleeve = 876.71, k_inlet_sleeve = 129.53, sigma_inlet_sleeve = 5.2534E7, rho_inlet_sleeve = 2820) (degC), Point: 232Temperature (Cp_Al = 828.97, k_Al = 126.34, sigma_Al = 5.1966E7, rho_Al = 2477, Cp_inlet = 732.29, k_inlet = 168.63, sigma_inlet = 2.8659E7, rho_inlet = 2305, Cp_outlet = 949.26, k_outlet = 134.12, sigma_outlet = 4.6207E7, rho_outlet = 2136.8, Cp_outlet_sleeve = 620.95, k_outlet_sleeve = 156.6, sigma_outlet_sleeve = 3.426E7, rho_outlet_sleeve = 2819.2, Cp_inlet_sleeve = 876.71, k_inlet_sleeve = 129.53, sigma_inlet_sleeve = 5.2534E7, rho_inlet_sleeve = 2820) (degC), Point: 239Temperature (Cp_Al = 828.97, k_Al = 126.34, sigma_Al = 5.1966E7, rho_Al = 2477, Cp_inlet = 732.29, k_inlet = 168.63, sigma_inlet = 2.8659E7, rho_inlet = 2305, Cp_outlet = 949.26, k_outlet = 134.12, sigma_outlet = 4.6207E7, rho_outlet = 2136.8, Cp_outlet_sleeve = 620.95, k_outlet_sleeve = 156.6, sigma_outlet_sleeve = 3.426E7, rho_outlet_sleeve = 2819.2, Cp_inlet_sleeve = 876.71, k_inlet_sleeve = 129.53, sigma_inlet_sleeve = 5.2534E7, rho_inlet_sleeve = 2820) (degC), Point: 252Temperature (Cp_Al = 828.97, k_Al = 126.34, sigma_Al = 5.1966E7, rho_Al = 2477, Cp_inlet = 732.29, k_inlet = 168.63, sigma_inlet = 2.8659E7, rho_inlet = 2305, Cp_outlet = 949.26, k_outlet = 134.12, sigma_outlet = 4.6207E7, rho_outlet = 2136.8, Cp_outlet_sleeve = 620.95, k_outlet_sleeve = 156.6, sigma_outlet_sleeve = 3.426E7, rho_outlet_sleeve = 2819.2, Cp_inlet_sleeve = 876.71, k_inlet_sleeve = 129.53, sigma_inlet_sleeve = 5.2534E7, rho_inlet_sleeve = 2820) (degC), Point: 261Temperature (Cp_Al = 828.97, k_Al = 126.34, sigma_Al = 5.1966E7, rho_Al = 2477, Cp_inlet = 732.29, k_inlet = 168.63, sigma_inlet = 2.8659E7, rho_inlet = 2305, Cp_outlet = 949.26, k_outlet = 134.12, sigma_outlet = 4.6207E7, rho_outlet = 2136.8, Cp_outlet_sleeve = 620.95, k_outlet_sleeve = 156.6, sigma_outlet_sleeve = 3.426E7, rho_outlet_sleeve = 2819.2, Cp_inlet_sleeve = 876.71, k_inlet_sleeve = 129.53, sigma_inlet_sleeve = 5.2534E7, rho_inlet_sleeve = 2820) (degC), Point: 270Temperature (Cp_Al = 828.97, k_Al = 126.34, sigma_Al = 5.1966E7, rho_Al = 2477, Cp_inlet = 732.29, k_inlet = 168.63, sigma_inlet = 2.8659E7, rho_inlet = 2305, Cp_outlet = 949.26, k_outlet = 134.12, sigma_outlet = 4.6207E7, rho_outlet = 2136.8, Cp_outlet_sleeve = 620.95, k_outlet_sleeve = 156.6, sigma_outlet_sleeve = 3.426E7, rho_outlet_sleeve = 2819.2, Cp_inlet_sleeve = 876.71, k_inlet_sleeve = 129.53, sigma_inlet_sleeve = 5.2534E7, rho_inlet_sleeve = 2820) (degC), Point: 273Temperature (Cp_Al = 828.97, k_Al = 126.34, sigma_Al = 5.1966E7, rho_Al = 2477, Cp_inlet = 732.29, k_inlet = 168.63, sigma_inlet = 2.8659E7, rho_inlet = 2305, Cp_outlet = 949.26, k_outlet = 134.12, sigma_outlet = 4.6207E7, rho_outlet = 2136.8, Cp_outlet_sleeve = 620.95, k_outlet_sleeve = 156.6, sigma_outlet_sleeve = 3.426E7, rho_outlet_sleeve = 2819.2, Cp_inlet_sleeve = 876.71, k_inlet_sleeve = 129.53, sigma_inlet_sleeve = 5.2534E7, rho_inlet_sleeve = 2820) (degC), Point: 275
0                        21.755095439524382       21.015755068769522       21.130109615094          21.008670320599492       21.01296737791523        21.10762712182924        21.010333493511666       21.029093348776826       21.0012855577433         21.02452638478138        21.00142238205285        21.000716376584535       21.009377695369835       21.00010411883619        21.008474908067853       21.024931228992614       21.000059311457733       21.01143377309728        21.000754842503113       21.00031652929954        21.001774310707845       21.000198332727166       21.000311702193073       21.01032192036388        21.11802105540005        21.01233387483211        21.59832120463369        21.008508836187048       21.14274226267986        21.01938646447877        21.839807623532693
3                        335.1593665205937        300.1626216952624        308.823933825283         304.0006920390555        281.41682581237285       297.04892448457474       296.4059866067164        281.46811255120576       275.10757570653607       289.66193903111446       292.8042137224578        284.8693680424725        281.10289649821436       264.7828505059865        270.8679209053771        264.5372962655389        259.843147395119         268.2291280703681        269.3849382684126        263.22397847255695       262.6864336412402        256.8071502772117        259.6607370667688        298.413120722554         299.4985576484694        283.09343341547583       324.8438569833237        305.5519282896413        310.591182658957         299.13119814736945       339.26252683551684
6                        465.20413616159897       428.58394538779635       441.4981380019814        437.5194612062181        419.00648994124845       438.9967918650358        439.14054773165435       420.9881173693424        412.53919919603334       431.5101116770546        435.44662474725635       427.5091728106431        422.9528667920414        402.21460917020636       410.37814200956916       393.08744026403986       386.6866106760933        399.53911501866446       401.58164001003775       395.557519232122         394.2032759126432        384.0707229235221        388.56162290240843       440.96702979378745       441.24125992522227       420.36588177551744       464.2234176722194        436.45934540109          440.6361788221345        424.6592041066749        466.5395016567586
9                        540.1783939951245        502.6265947424671        518.4077588729652        515.2218739890083        499.19628023573875       522.2404216152039        523.1418191903085        502.3089700259428        492.6395858147639        514.7017462938551        519.4002615910882        511.45253074938114       506.1340147551291        482.29618602490757       491.6719978921782        467.12366447448824       459.74136816644705       475.593487431977         478.4583745218547        472.55778686924634       470.4141240128183        457.3800745110069        462.81991962562415       524.8694668757311        524.3636940000126        500.3567507330429        545.4460508494568        512.6056634727013        515.9622784786754        496.9194649998667        539.8165949545509
12                       592.1911915415386        554.0158992188941        571.8465133209548        569.2859680550811        554.2988793015578        579.6015991695328        581.1319056294764        558.1747588249256        547.6839682912761        572.0300884093272        577.3604741781991        569.408999992938         563.4578388899523        537.3288187726531        547.519771102741         518.5845003631799        510.54599068171456       528.537201269984         532.0489253069437        526.2121988394048        523.4354454342395        508.3075113353225        514.3866596428111        582.801831062963         581.6492710226768        555.3301312406985        601.2478233046845        565.7681896245987        568.469173790638         547.2211355880913        590.8023457597037
15                       630.9843032200207        592.3673468459559        611.7293248229313        609.6693670919932        594.9307909845486        621.9671698907512        624.019429926915         599.3518394579542        588.2771507335997        614.3745918176479        620.22897958501          612.2776989405434        605.8016259092853        577.9154721689961        588.6852509993154        557.0351401616654        548.5327874008165        568.1181393832561        572.146641446136         566.3718536403696        563.0820358028385        546.3772633386333        552.9117166051203        625.656399266565         623.9675827513747        595.8772251999019        642.383023234749         605.6309344303655        607.8017781807598        584.8985354972535        628.9657074213815
18                       662.0183183970981        623.0691027404106        643.632528499435         641.984800902701         627.0963077463016        655.5184187562859        658.0102089494492        631.9306960224242        620.4161237609521        647.9119833720484        654.2073481258394        646.2581003456314        639.3401512428625        610.050884566303         621.2562899090964        587.8454516084116        578.9951193620519        599.8279625092666        604.2813934387161        598.5712208589727        594.8554055988905        576.9070107554359        583.7850705678951        659.6285601037603        657.4885866136564        627.9854214037042        674.9335822229076        637.6425819841776        639.3739800298852        615.1693720428974        659.6021216418912
21                       688.507410346887         649.2925022949145        670.8441647980015        669.545753770723         654.3153436612           683.8843672427305        686.7511328064875        659.4810678186511        647.6161995204828        676.2684299005497        682.9398215044358        674.993305672212         667.6985119114737        637.2490386662143        648.8010849763168        614.1793118106966        605.0516143877952        626.9079538175746        631.720963732138         626.0747298413646        621.9963372351526        603.0226364144975        610.1756098018949        688.3588976941985        685.8343454060671        655.1640637092894        702.4639535057804        665.0200769303276        666.3780064950233        641.1036446387321        685.8278339396198
24                       712.136677352428         672.7004490449463        695.0903763140901        694.0935511487345        678.4151649819088        708.9516848284628        712.1401770439056        683.8554575457922        671.7020481306689        701.3290191009402        708.3229172774561        700.3792595840687        692.7612413225718        661.333857471289         673.1712801133187        637.6958474158741        628.3378860376766        651.0602344165155        656.1832530722722        650.5972560811051        646.2052509311477        626.3615769066683        633.743272433914         713.741988104894         710.8877013534957        679.2344533103793        726.8236736615692        689.4539102195654        690.4892817387605        664.3097518542969        709.2755187540815
27                       733.7977155023859        694.1731534682563        717.2851182250051        716.5508761606537        700.3523271386517        731.7104317862529        735.1748403606523        706.023389010348         693.6286934094014        724.0828970579868        731.3532988231118        723.4123789578064        715.5172388032591        683.2599943256622        695.3359606920974        659.2724934234002        649.7192106643545        673.1857817028186        678.5783523429675        673.0474872638184        668.3822998265866        647.7898121719192        655.3657532584199        736.7734756345558        733.6365700020858        701.1496937031337        748.9805866422955        711.8396548540082        712.594443008987         685.6377574297933        730.807981512639
