% Model:              brazing.mph
% Version:            COMSOL 5.3.0.223
% Date:               Oct 24 2018, 01:53
% Table:              Table 3 - 
% Time (s)               Temperature (Cp_Al = 858.5, k_Al = 149.71, sigma_Al = 3.9545E7, rho_Al = 2711.6, Cp_inlet = 893.98, k_inlet = 156.31, sigma_inlet = 3.6139E7, rho_inlet = 2588.2, Cp_outlet = 860.16, k_outlet = 155.54, sigma_outlet = 3.8874E7, rho_outlet = 2693.1, Cp_outlet_sleeve = 821.15, k_outlet_sleeve = 159.27, sigma_outlet_sleeve = 3.4659E7, rho_outlet_sleeve = 2653.8, Cp_inlet_sleeve = 934.29, k_inlet_sleeve = 158.78, sigma_inlet_sleeve = 3.9335E7, rho_inlet_sleeve = 2693.7) (degC), Point: 55Temperature (Cp_Al = 858.5, k_Al = 149.71, sigma_Al = 3.9545E7, rho_Al = 2711.6, Cp_inlet = 893.98, k_inlet = 156.31, sigma_inlet = 3.6139E7, rho_inlet = 2588.2, Cp_outlet = 860.16, k_outlet = 155.54, sigma_outlet = 3.8874E7, rho_outlet = 2693.1, Cp_outlet_sleeve = 821.15, k_outlet_sleeve = 159.27, sigma_outlet_sleeve = 3.4659E7, rho_outlet_sleeve = 2653.8, Cp_inlet_sleeve = 934.29, k_inlet_sleeve = 158.78, sigma_inlet_sleeve = 3.9335E7, rho_inlet_sleeve = 2693.7) (degC), Point: 56Temperature (Cp_Al = 858.5, k_Al = 149.71, sigma_Al = 3.9545E7, rho_Al = 2711.6, Cp_inlet = 893.98, k_inlet = 156.31, sigma_inlet = 3.6139E7, rho_inlet = 2588.2, Cp_outlet = 860.16, k_outlet = 155.54, sigma_outlet = 3.8874E7, rho_outlet = 2693.1, Cp_outlet_sleeve = 821.15, k_outlet_sleeve = 159.27, sigma_outlet_sleeve = 3.4659E7, rho_outlet_sleeve = 2653.8, Cp_inlet_sleeve = 934.29, k_inlet_sleeve = 158.78, sigma_inlet_sleeve = 3.9335E7, rho_inlet_sleeve = 2693.7) (degC), Point: 60Temperature (Cp_Al = 858.5, k_Al = 149.71, sigma_Al = 3.9545E7, rho_Al = 2711.6, Cp_inlet = 893.98, k_inlet = 156.31, sigma_inlet = 3.6139E7, rho_inlet = 2588.2, Cp_outlet = 860.16, k_outlet = 155.54, sigma_outlet = 3.8874E7, rho_outlet = 2693.1, Cp_outlet_sleeve = 821.15, k_outlet_sleeve = 159.27, sigma_outlet_sleeve = 3.4659E7, rho_outlet_sleeve = 2653.8, Cp_inlet_sleeve = 934.29, k_inlet_sleeve = 158.78, sigma_inlet_sleeve = 3.9335E7, rho_inlet_sleeve = 2693.7) (degC), Point: 69Temperature (Cp_Al = 858.5, k_Al = 149.71, sigma_Al = 3.9545E7, rho_Al = 2711.6, Cp_inlet = 893.98, k_inlet = 156.31, sigma_inlet = 3.6139E7, rho_inlet = 2588.2, Cp_outlet = 860.16, k_outlet = 155.54, sigma_outlet = 3.8874E7, rho_outlet = 2693.1, Cp_outlet_sleeve = 821.15, k_outlet_sleeve = 159.27, sigma_outlet_sleeve = 3.4659E7, rho_outlet_sleeve = 2653.8, Cp_inlet_sleeve = 934.29, k_inlet_sleeve = 158.78, sigma_inlet_sleeve = 3.9335E7, rho_inlet_sleeve = 2693.7) (degC), Point: 90Temperature (Cp_Al = 858.5, k_Al = 149.71, sigma_Al = 3.9545E7, rho_Al = 2711.6, Cp_inlet = 893.98, k_inlet = 156.31, sigma_inlet = 3.6139E7, rho_inlet = 2588.2, Cp_outlet = 860.16, k_outlet = 155.54, sigma_outlet = 3.8874E7, rho_outlet = 2693.1, Cp_outlet_sleeve = 821.15, k_outlet_sleeve = 159.27, sigma_outlet_sleeve = 3.4659E7, rho_outlet_sleeve = 2653.8, Cp_inlet_sleeve = 934.29, k_inlet_sleeve = 158.78, sigma_inlet_sleeve = 3.9335E7, rho_inlet_sleeve = 2693.7) (degC), Point: 98Temperature (Cp_Al = 858.5, k_Al = 149.71, sigma_Al = 3.9545E7, rho_Al = 2711.6, Cp_inlet = 893.98, k_inlet = 156.31, sigma_inlet = 3.6139E7, rho_inlet = 2588.2, Cp_outlet = 860.16, k_outlet = 155.54, sigma_outlet = 3.8874E7, rho_outlet = 2693.1, Cp_outlet_sleeve = 821.15, k_outlet_sleeve = 159.27, sigma_outlet_sleeve = 3.4659E7, rho_outlet_sleeve = 2653.8, Cp_inlet_sleeve = 934.29, k_inlet_sleeve = 158.78, sigma_inlet_sleeve = 3.9335E7, rho_inlet_sleeve = 2693.7) (degC), Point: 102Temperature (Cp_Al = 858.5, k_Al = 149.71, sigma_Al = 3.9545E7, rho_Al = 2711.6, Cp_inlet = 893.98, k_inlet = 156.31, sigma_inlet = 3.6139E7, rho_inlet = 2588.2, Cp_outlet = 860.16, k_outlet = 155.54, sigma_outlet = 3.8874E7, rho_outlet = 2693.1, Cp_outlet_sleeve = 821.15, k_outlet_sleeve = 159.27, sigma_outlet_sleeve = 3.4659E7, rho_outlet_sleeve = 2653.8, Cp_inlet_sleeve = 934.29, k_inlet_sleeve = 158.78, sigma_inlet_sleeve = 3.9335E7, rho_inlet_sleeve = 2693.7) (degC), Point: 127Temperature (Cp_Al = 858.5, k_Al = 149.71, sigma_Al = 3.9545E7, rho_Al = 2711.6, Cp_inlet = 893.98, k_inlet = 156.31, sigma_inlet = 3.6139E7, rho_inlet = 2588.2, Cp_outlet = 860.16, k_outlet = 155.54, sigma_outlet = 3.8874E7, rho_outlet = 2693.1, Cp_outlet_sleeve = 821.15, k_outlet_sleeve = 159.27, sigma_outlet_sleeve = 3.4659E7, rho_outlet_sleeve = 2653.8, Cp_inlet_sleeve = 934.29, k_inlet_sleeve = 158.78, sigma_inlet_sleeve = 3.9335E7, rho_inlet_sleeve = 2693.7) (degC), Point: 128Temperature (Cp_Al = 858.5, k_Al = 149.71, sigma_Al = 3.9545E7, rho_Al = 2711.6, Cp_inlet = 893.98, k_inlet = 156.31, sigma_inlet = 3.6139E7, rho_inlet = 2588.2, Cp_outlet = 860.16, k_outlet = 155.54, sigma_outlet = 3.8874E7, rho_outlet = 2693.1, Cp_outlet_sleeve = 821.15, k_outlet_sleeve = 159.27, sigma_outlet_sleeve = 3.4659E7, rho_outlet_sleeve = 2653.8, Cp_inlet_sleeve = 934.29, k_inlet_sleeve = 158.78, sigma_inlet_sleeve = 3.9335E7, rho_inlet_sleeve = 2693.7) (degC), Point: 134Temperature (Cp_Al = 858.5, k_Al = 149.71, sigma_Al = 3.9545E7, rho_Al = 2711.6, Cp_inlet = 893.98, k_inlet = 156.31, sigma_inlet = 3.6139E7, rho_inlet = 2588.2, Cp_outlet = 860.16, k_outlet = 155.54, sigma_outlet = 3.8874E7, rho_outlet = 2693.1, Cp_outlet_sleeve = 821.15, k_outlet_sleeve = 159.27, sigma_outlet_sleeve = 3.4659E7, rho_outlet_sleeve = 2653.8, Cp_inlet_sleeve = 934.29, k_inlet_sleeve = 158.78, sigma_inlet_sleeve = 3.9335E7, rho_inlet_sleeve = 2693.7) (degC), Point: 138Temperature (Cp_Al = 858.5, k_Al = 149.71, sigma_Al = 3.9545E7, rho_Al = 2711.6, Cp_inlet = 893.98, k_inlet = 156.31, sigma_inlet = 3.6139E7, rho_inlet = 2588.2, Cp_outlet = 860.16, k_outlet = 155.54, sigma_outlet = 3.8874E7, rho_outlet = 2693.1, Cp_outlet_sleeve = 821.15, k_outlet_sleeve = 159.27, sigma_outlet_sleeve = 3.4659E7, rho_outlet_sleeve = 2653.8, Cp_inlet_sleeve = 934.29, k_inlet_sleeve = 158.78, sigma_inlet_sleeve = 3.9335E7, rho_inlet_sleeve = 2693.7) (degC), Point: 151Temperature (Cp_Al = 858.5, k_Al = 149.71, sigma_Al = 3.9545E7, rho_Al = 2711.6, Cp_inlet = 893.98, k_inlet = 156.31, sigma_inlet = 3.6139E7, rho_inlet = 2588.2, Cp_outlet = 860.16, k_outlet = 155.54, sigma_outlet = 3.8874E7, rho_outlet = 2693.1, Cp_outlet_sleeve = 821.15, k_outlet_sleeve = 159.27, sigma_outlet_sleeve = 3.4659E7, rho_outlet_sleeve = 2653.8, Cp_inlet_sleeve = 934.29, k_inlet_sleeve = 158.78, sigma_inlet_sleeve = 3.9335E7, rho_inlet_sleeve = 2693.7) (degC), Point: 154Temperature (Cp_Al = 858.5, k_Al = 149.71, sigma_Al = 3.9545E7, rho_Al = 2711.6, Cp_inlet = 893.98, k_inlet = 156.31, sigma_inlet = 3.6139E7, rho_inlet = 2588.2, Cp_outlet = 860.16, k_outlet = 155.54, sigma_outlet = 3.8874E7, rho_outlet = 2693.1, Cp_outlet_sleeve = 821.15, k_outlet_sleeve = 159.27, sigma_outlet_sleeve = 3.4659E7, rho_outlet_sleeve = 2653.8, Cp_inlet_sleeve = 934.29, k_inlet_sleeve = 158.78, sigma_inlet_sleeve = 3.9335E7, rho_inlet_sleeve = 2693.7) (degC), Point: 159Temperature (Cp_Al = 858.5, k_Al = 149.71, sigma_Al = 3.9545E7, rho_Al = 2711.6, Cp_inlet = 893.98, k_inlet = 156.31, sigma_inlet = 3.6139E7, rho_inlet = 2588.2, Cp_outlet = 860.16, k_outlet = 155.54, sigma_outlet = 3.8874E7, rho_outlet = 2693.1, Cp_outlet_sleeve = 821.15, k_outlet_sleeve = 159.27, sigma_outlet_sleeve = 3.4659E7, rho_outlet_sleeve = 2653.8, Cp_inlet_sleeve = 934.29, k_inlet_sleeve = 158.78, sigma_inlet_sleeve = 3.9335E7, rho_inlet_sleeve = 2693.7) (degC), Point: 163Temperature (Cp_Al = 858.5, k_Al = 149.71, sigma_Al = 3.9545E7, rho_Al = 2711.6, Cp_inlet = 893.98, k_inlet = 156.31, sigma_inlet = 3.6139E7, rho_inlet = 2588.2, Cp_outlet = 860.16, k_outlet = 155.54, sigma_outlet = 3.8874E7, rho_outlet = 2693.1, Cp_outlet_sleeve = 821.15, k_outlet_sleeve = 159.27, sigma_outlet_sleeve = 3.4659E7, rho_outlet_sleeve = 2653.8, Cp_inlet_sleeve = 934.29, k_inlet_sleeve = 158.78, sigma_inlet_sleeve = 3.9335E7, rho_inlet_sleeve = 2693.7) (degC), Point: 167Temperature (Cp_Al = 858.5, k_Al = 149.71, sigma_Al = 3.9545E7, rho_Al = 2711.6, Cp_inlet = 893.98, k_inlet = 156.31, sigma_inlet = 3.6139E7, rho_inlet = 2588.2, Cp_outlet = 860.16, k_outlet = 155.54, sigma_outlet = 3.8874E7, rho_outlet = 2693.1, Cp_outlet_sleeve = 821.15, k_outlet_sleeve = 159.27, sigma_outlet_sleeve = 3.4659E7, rho_outlet_sleeve = 2653.8, Cp_inlet_sleeve = 934.29, k_inlet_sleeve = 158.78, sigma_inlet_sleeve = 3.9335E7, rho_inlet_sleeve = 2693.7) (degC), Point: 168Temperature (Cp_Al = 858.5, k_Al = 149.71, sigma_Al = 3.9545E7, rho_Al = 2711.6, Cp_inlet = 893.98, k_inlet = 156.31, sigma_inlet = 3.6139E7, rho_inlet = 2588.2, Cp_outlet = 860.16, k_outlet = 155.54, sigma_outlet = 3.8874E7, rho_outlet = 2693.1, Cp_outlet_sleeve = 821.15, k_outlet_sleeve = 159.27, sigma_outlet_sleeve = 3.4659E7, rho_outlet_sleeve = 2653.8, Cp_inlet_sleeve = 934.29, k_inlet_sleeve = 158.78, sigma_inlet_sleeve = 3.9335E7, rho_inlet_sleeve = 2693.7) (degC), Point: 172Temperature (Cp_Al = 858.5, k_Al = 149.71, sigma_Al = 3.9545E7, rho_Al = 2711.6, Cp_inlet = 893.98, k_inlet = 156.31, sigma_inlet = 3.6139E7, rho_inlet = 2588.2, Cp_outlet = 860.16, k_outlet = 155.54, sigma_outlet = 3.8874E7, rho_outlet = 2693.1, Cp_outlet_sleeve = 821.15, k_outlet_sleeve = 159.27, sigma_outlet_sleeve = 3.4659E7, rho_outlet_sleeve = 2653.8, Cp_inlet_sleeve = 934.29, k_inlet_sleeve = 158.78, sigma_inlet_sleeve = 3.9335E7, rho_inlet_sleeve = 2693.7) (degC), Point: 181Temperature (Cp_Al = 858.5, k_Al = 149.71, sigma_Al = 3.9545E7, rho_Al = 2711.6, Cp_inlet = 893.98, k_inlet = 156.31, sigma_inlet = 3.6139E7, rho_inlet = 2588.2, Cp_outlet = 860.16, k_outlet = 155.54, sigma_outlet = 3.8874E7, rho_outlet = 2693.1, Cp_outlet_sleeve = 821.15, k_outlet_sleeve = 159.27, sigma_outlet_sleeve = 3.4659E7, rho_outlet_sleeve = 2653.8, Cp_inlet_sleeve = 934.29, k_inlet_sleeve = 158.78, sigma_inlet_sleeve = 3.9335E7, rho_inlet_sleeve = 2693.7) (degC), Point: 201Temperature (Cp_Al = 858.5, k_Al = 149.71, sigma_Al = 3.9545E7, rho_Al = 2711.6, Cp_inlet = 893.98, k_inlet = 156.31, sigma_inlet = 3.6139E7, rho_inlet = 2588.2, Cp_outlet = 860.16, k_outlet = 155.54, sigma_outlet = 3.8874E7, rho_outlet = 2693.1, Cp_outlet_sleeve = 821.15, k_outlet_sleeve = 159.27, sigma_outlet_sleeve = 3.4659E7, rho_outlet_sleeve = 2653.8, Cp_inlet_sleeve = 934.29, k_inlet_sleeve = 158.78, sigma_inlet_sleeve = 3.9335E7, rho_inlet_sleeve = 2693.7) (degC), Point: 210Temperature (Cp_Al = 858.5, k_Al = 149.71, sigma_Al = 3.9545E7, rho_Al = 2711.6, Cp_inlet = 893.98, k_inlet = 156.31, sigma_inlet = 3.6139E7, rho_inlet = 2588.2, Cp_outlet = 860.16, k_outlet = 155.54, sigma_outlet = 3.8874E7, rho_outlet = 2693.1, Cp_outlet_sleeve = 821.15, k_outlet_sleeve = 159.27, sigma_outlet_sleeve = 3.4659E7, rho_outlet_sleeve = 2653.8, Cp_inlet_sleeve = 934.29, k_inlet_sleeve = 158.78, sigma_inlet_sleeve = 3.9335E7, rho_inlet_sleeve = 2693.7) (degC), Point: 213Temperature (Cp_Al = 858.5, k_Al = 149.71, sigma_Al = 3.9545E7, rho_Al = 2711.6, Cp_inlet = 893.98, k_inlet = 156.31, sigma_inlet = 3.6139E7, rho_inlet = 2588.2, Cp_outlet = 860.16, k_outlet = 155.54, sigma_outlet = 3.8874E7, rho_outlet = 2693.1, Cp_outlet_sleeve = 821.15, k_outlet_sleeve = 159.27, sigma_outlet_sleeve = 3.4659E7, rho_outlet_sleeve = 2653.8, Cp_inlet_sleeve = 934.29, k_inlet_sleeve = 158.78, sigma_inlet_sleeve = 3.9335E7, rho_inlet_sleeve = 2693.7) (degC), Point: 215Temperature (Cp_Al = 858.5, k_Al = 149.71, sigma_Al = 3.9545E7, rho_Al = 2711.6, Cp_inlet = 893.98, k_inlet = 156.31, sigma_inlet = 3.6139E7, rho_inlet = 2588.2, Cp_outlet = 860.16, k_outlet = 155.54, sigma_outlet = 3.8874E7, rho_outlet = 2693.1, Cp_outlet_sleeve = 821.15, k_outlet_sleeve = 159.27, sigma_outlet_sleeve = 3.4659E7, rho_outlet_sleeve = 2653.8, Cp_inlet_sleeve = 934.29, k_inlet_sleeve = 158.78, sigma_inlet_sleeve = 3.9335E7, rho_inlet_sleeve = 2693.7) (degC), Point: 229Temperature (Cp_Al = 858.5, k_Al = 149.71, sigma_Al = 3.9545E7, rho_Al = 2711.6, Cp_inlet = 893.98, k_inlet = 156.31, sigma_inlet = 3.6139E7, rho_inlet = 2588.2, Cp_outlet = 860.16, k_outlet = 155.54, sigma_outlet = 3.8874E7, rho_outlet = 2693.1, Cp_outlet_sleeve = 821.15, k_outlet_sleeve = 159.27, sigma_outlet_sleeve = 3.4659E7, rho_outlet_sleeve = 2653.8, Cp_inlet_sleeve = 934.29, k_inlet_sleeve = 158.78, sigma_inlet_sleeve = 3.9335E7, rho_inlet_sleeve = 2693.7) (degC), Point: 232Temperature (Cp_Al = 858.5, k_Al = 149.71, sigma_Al = 3.9545E7, rho_Al = 2711.6, Cp_inlet = 893.98, k_inlet = 156.31, sigma_inlet = 3.6139E7, rho_inlet = 2588.2, Cp_outlet = 860.16, k_outlet = 155.54, sigma_outlet = 3.8874E7, rho_outlet = 2693.1, Cp_outlet_sleeve = 821.15, k_outlet_sleeve = 159.27, sigma_outlet_sleeve = 3.4659E7, rho_outlet_sleeve = 2653.8, Cp_inlet_sleeve = 934.29, k_inlet_sleeve = 158.78, sigma_inlet_sleeve = 3.9335E7, rho_inlet_sleeve = 2693.7) (degC), Point: 239Temperature (Cp_Al = 858.5, k_Al = 149.71, sigma_Al = 3.9545E7, rho_Al = 2711.6, Cp_inlet = 893.98, k_inlet = 156.31, sigma_inlet = 3.6139E7, rho_inlet = 2588.2, Cp_outlet = 860.16, k_outlet = 155.54, sigma_outlet = 3.8874E7, rho_outlet = 2693.1, Cp_outlet_sleeve = 821.15, k_outlet_sleeve = 159.27, sigma_outlet_sleeve = 3.4659E7, rho_outlet_sleeve = 2653.8, Cp_inlet_sleeve = 934.29, k_inlet_sleeve = 158.78, sigma_inlet_sleeve = 3.9335E7, rho_inlet_sleeve = 2693.7) (degC), Point: 252Temperature (Cp_Al = 858.5, k_Al = 149.71, sigma_Al = 3.9545E7, rho_Al = 2711.6, Cp_inlet = 893.98, k_inlet = 156.31, sigma_inlet = 3.6139E7, rho_inlet = 2588.2, Cp_outlet = 860.16, k_outlet = 155.54, sigma_outlet = 3.8874E7, rho_outlet = 2693.1, Cp_outlet_sleeve = 821.15, k_outlet_sleeve = 159.27, sigma_outlet_sleeve = 3.4659E7, rho_outlet_sleeve = 2653.8, Cp_inlet_sleeve = 934.29, k_inlet_sleeve = 158.78, sigma_inlet_sleeve = 3.9335E7, rho_inlet_sleeve = 2693.7) (degC), Point: 261Temperature (Cp_Al = 858.5, k_Al = 149.71, sigma_Al = 3.9545E7, rho_Al = 2711.6, Cp_inlet = 893.98, k_inlet = 156.31, sigma_inlet = 3.6139E7, rho_inlet = 2588.2, Cp_outlet = 860.16, k_outlet = 155.54, sigma_outlet = 3.8874E7, rho_outlet = 2693.1, Cp_outlet_sleeve = 821.15, k_outlet_sleeve = 159.27, sigma_outlet_sleeve = 3.4659E7, rho_outlet_sleeve = 2653.8, Cp_inlet_sleeve = 934.29, k_inlet_sleeve = 158.78, sigma_inlet_sleeve = 3.9335E7, rho_inlet_sleeve = 2693.7) (degC), Point: 270Temperature (Cp_Al = 858.5, k_Al = 149.71, sigma_Al = 3.9545E7, rho_Al = 2711.6, Cp_inlet = 893.98, k_inlet = 156.31, sigma_inlet = 3.6139E7, rho_inlet = 2588.2, Cp_outlet = 860.16, k_outlet = 155.54, sigma_outlet = 3.8874E7, rho_outlet = 2693.1, Cp_outlet_sleeve = 821.15, k_outlet_sleeve = 159.27, sigma_outlet_sleeve = 3.4659E7, rho_outlet_sleeve = 2653.8, Cp_inlet_sleeve = 934.29, k_inlet_sleeve = 158.78, sigma_inlet_sleeve = 3.9335E7, rho_inlet_sleeve = 2693.7) (degC), Point: 273Temperature (Cp_Al = 858.5, k_Al = 149.71, sigma_Al = 3.9545E7, rho_Al = 2711.6, Cp_inlet = 893.98, k_inlet = 156.31, sigma_inlet = 3.6139E7, rho_inlet = 2588.2, Cp_outlet = 860.16, k_outlet = 155.54, sigma_outlet = 3.8874E7, rho_outlet = 2693.1, Cp_outlet_sleeve = 821.15, k_outlet_sleeve = 159.27, sigma_outlet_sleeve = 3.4659E7, rho_outlet_sleeve = 2653.8, Cp_inlet_sleeve = 934.29, k_inlet_sleeve = 158.78, sigma_inlet_sleeve = 3.9335E7, rho_inlet_sleeve = 2693.7) (degC), Point: 275
0                        21.620419974372396       21.012667284764063       21.1316948953189         21.00827551387266        21.01308261208453        21.1082894837773         21.008504364996327       21.024222304001285       21.00137599189094        21.02459452849962        21.00120084624865        21.000631605250987       21.009540970570413       21.00010665608147        21.007219268738424       21.0203550782731         21.000053936703466       21.01154570627324        21.000703210827623       21.00028691432061        21.001774039927227       21.00017069655013        21.000256605874142       21.00849937724894        21.11879949208935        21.01256696628201        21.51422910820071        21.008162009086448       21.144545167935917       21.015747591725585       21.690226609257707
3                        305.2800485008996        270.81062524476124       279.55035393884566       274.63909209632914       257.2185905983737        269.4929779410178        267.6427212623596        256.3052048339098        251.68903001185004       262.14951923971375       264.03165265958694       255.74695947271653       253.22909192513873       241.00285411710968       245.71049156006882       237.57909895713806       233.14337993949113       241.64858036321118       242.92509144624694       236.73340782819224       236.00001300777598       229.86859754412325       232.51937017662362       269.67200290704204       271.9629260869267        258.8031259313958        291.6940630121544        276.3133100222972        281.48180858822934       270.13418351290227       309.6108479798945
6                        429.51479048304213       393.54429913144816       405.91793348681483       401.67692387379475       380.21104037592625       397.26470184371715       396.42125094399364       381.09932136805617       374.52463371913825       389.81637687557486       392.7106150703594        384.4121124221258        380.88617046232275       363.8206948771534        370.47897359518413       360.62183160673237       354.61404875839094       366.9349572946944        368.91649115980977       362.62264463870576       361.2438737528515        351.47362691242904       355.64020177849716       398.24724360900234       399.5056257033756        381.4623043615695        416.3298655294029        401.0222198572885        405.50445096952683       390.2851952316139        431.3739680367345
9                        503.1971030992711        466.31141916278          481.3674766184414        477.8474118056979        450.4623542893095        470.75645949161776       470.8075796499779        452.38032672680004       444.68235559297057       463.2507441861752        467.0431097196696        458.7365761488222        454.31351198408777       433.9670034917086        441.73991201231775       433.44373354674406       426.47522826806244       441.60346733978406       444.333850638399         438.14984917535446       436.0545645948479        423.57347825212673       428.6696540611631        472.5268725373155        472.86762993110085       451.51358868854663       487.5140485007403        475.76969989529607       479.5062930695385        461.42207179796264       503.50286693483474
12                       553.6389931599831        516.1335193469411        533.17555289888          530.2570619812648        497.3156636690793        519.8605536552437        520.5997338830073        499.88936173827494       491.475987137168         512.3196039085389        516.8024565259543        508.4930449685404        503.3794749671532        480.75398188542977       489.235824929877         483.375674564115         475.75675361186427       492.95752396571913       496.31050382962235       490.1969731280218        487.4937086239264        472.9890760569182        478.71766587964885       522.2575562501859        521.8923502567844        498.23982656125327       534.9614928666141        527.3682548987939        530.4749071205878        510.26069210057085       553.0157810739092
15                       592.021933269265         554.0599259832888        572.6448582353944        570.2230293831482        532.4424686471945        556.6360283894843        557.9058518279525        535.4732552918251        526.5618902730249        549.0714853922689        554.0867403484583        545.7782747476276        540.1320329250201        515.8377160048054        524.8126225778383        521.4305341255255        513.3336486697004        532.1396099430865        536.0054005388779        529.9664551374124        526.7557876412081        510.6694442176415        516.8654423187257        559.526411909677         558.6167209419988        533.2818651296435        570.5052182052192        566.8570032914146        569.4392950394765        547.5663900490956        590.8184663979781
18                       622.6369543710758        584.3266706957841        604.1464296571137        602.1420642636341        560.1306299848692        585.5672576527169        587.255539003017         563.4906242315503        554.2218821997938        577.9869545676266        583.4219420955797        575.1161584638899        569.0497799547236        543.4977525572656        552.8261747987655        551.8308393580994        543.3703978061284        563.4571040421919        567.7530789422234        561.7909314601907        558.150393926404         540.7923253468022        547.3457270552016        588.8541459364328        587.5151132307122        560.9131304346477        598.4961551528212        598.5042667086128        600.6432810025967        577.4416202343554        621.072439378432
21                       648.6510329158142        610.0599700750729        630.9084620125628        629.2627109358056        583.5161683736975        609.9406282388842        611.9717132979756        587.1296979761223        577.5872835294456        602.349412921287         608.1281458505865        599.8256875858636        593.4151237074017        566.8642252730476        576.4631604466226        577.6963579618117        568.9437846146707        590.0944322291142        594.7593224014433        588.8719350353086        584.8605238983014        566.4406888020803        573.2823365038724        613.5572735358281        611.8666179925563        584.2589948477116        622.1171081839854        625.4671771870076        627.2244380944526        602.9170207066168        646.852173206455
24                       671.7607321752247        632.934521369013         654.6631794194572        653.3299945812549        604.2616683952406        631.5046985166564        633.8257419387346        608.0810456599368        598.3179657717492        623.9057236136744        629.9751185668542        621.6761441174281        614.9744868789339        587.5964502989231        597.4133734983511        600.6987392268559        591.7023241726944        613.7608645964023        618.7467930793657        612.9291793678238        608.5938956088434        589.2652777741114        596.3480714393949        635.4037026064087        633.4157585017057        604.9760224314078        643.0556382523749        649.4422017550323        650.8666344300029        625.6155501961362        669.8043787752965
27                       692.9077498535507        653.8801078498433        676.3730817397718        675.3143097866732        623.2907396805618        651.2320712858594        653.8038885856174        627.283484404715         617.3358652033053        643.6274573494075        649.9481569769299        641.6525871942129        634.6992216674307        606.616072633034         616.615211421805         621.7653864747926        612.5607221563168        635.4058536029615        640.6732386267764        634.9192177590545        630.299443132779         610.1821188343671        617.4711235384301        655.377661678886         653.132732908697         623.9841598537006        662.2487653419805        671.3727471871829        672.5052429202132        646.4372180328717        690.8422628680215
