% Model:              brazing.mph
% Version:            COMSOL 5.3.0.223
% Date:               Oct 24 2018, 05:11
% Table:              Table 3 - 
% Time (s)               Temperature (Cp_Al = 550.98, k_Al = 99.275, sigma_Al = 4.957E7, rho_Al = 3160.1, Cp_inlet = 1053.8, k_inlet = 186.82, sigma_inlet = 2.6685E7, rho_inlet = 1378, Cp_outlet = 822.18, k_outlet = 89.584, sigma_outlet = 5.062E7, rho_outlet = 2658.4, Cp_outlet_sleeve = 577.94, k_outlet_sleeve = 183.64, sigma_outlet_sleeve = 2.8102E7, rho_outlet_sleeve = 2683.9, Cp_inlet_sleeve = 842.58, k_inlet_sleeve = 169.63, sigma_inlet_sleeve = 4.5599E7, rho_inlet_sleeve = 2332.7) (degC), Point: 55Temperature (Cp_Al = 550.98, k_Al = 99.275, sigma_Al = 4.957E7, rho_Al = 3160.1, Cp_inlet = 1053.8, k_inlet = 186.82, sigma_inlet = 2.6685E7, rho_inlet = 1378, Cp_outlet = 822.18, k_outlet = 89.584, sigma_outlet = 5.062E7, rho_outlet = 2658.4, Cp_outlet_sleeve = 577.94, k_outlet_sleeve = 183.64, sigma_outlet_sleeve = 2.8102E7, rho_outlet_sleeve = 2683.9, Cp_inlet_sleeve = 842.58, k_inlet_sleeve = 169.63, sigma_inlet_sleeve = 4.5599E7, rho_inlet_sleeve = 2332.7) (degC), Point: 56Temperature (Cp_Al = 550.98, k_Al = 99.275, sigma_Al = 4.957E7, rho_Al = 3160.1, Cp_inlet = 1053.8, k_inlet = 186.82, sigma_inlet = 2.6685E7, rho_inlet = 1378, Cp_outlet = 822.18, k_outlet = 89.584, sigma_outlet = 5.062E7, rho_outlet = 2658.4, Cp_outlet_sleeve = 577.94, k_outlet_sleeve = 183.64, sigma_outlet_sleeve = 2.8102E7, rho_outlet_sleeve = 2683.9, Cp_inlet_sleeve = 842.58, k_inlet_sleeve = 169.63, sigma_inlet_sleeve = 4.5599E7, rho_inlet_sleeve = 2332.7) (degC), Point: 60Temperature (Cp_Al = 550.98, k_Al = 99.275, sigma_Al = 4.957E7, rho_Al = 3160.1, Cp_inlet = 1053.8, k_inlet = 186.82, sigma_inlet = 2.6685E7, rho_inlet = 1378, Cp_outlet = 822.18, k_outlet = 89.584, sigma_outlet = 5.062E7, rho_outlet = 2658.4, Cp_outlet_sleeve = 577.94, k_outlet_sleeve = 183.64, sigma_outlet_sleeve = 2.8102E7, rho_outlet_sleeve = 2683.9, Cp_inlet_sleeve = 842.58, k_inlet_sleeve = 169.63, sigma_inlet_sleeve = 4.5599E7, rho_inlet_sleeve = 2332.7) (degC), Point: 69Temperature (Cp_Al = 550.98, k_Al = 99.275, sigma_Al = 4.957E7, rho_Al = 3160.1, Cp_inlet = 1053.8, k_inlet = 186.82, sigma_inlet = 2.6685E7, rho_inlet = 1378, Cp_outlet = 822.18, k_outlet = 89.584, sigma_outlet = 5.062E7, rho_outlet = 2658.4, Cp_outlet_sleeve = 577.94, k_outlet_sleeve = 183.64, sigma_outlet_sleeve = 2.8102E7, rho_outlet_sleeve = 2683.9, Cp_inlet_sleeve = 842.58, k_inlet_sleeve = 169.63, sigma_inlet_sleeve = 4.5599E7, rho_inlet_sleeve = 2332.7) (degC), Point: 90Temperature (Cp_Al = 550.98, k_Al = 99.275, sigma_Al = 4.957E7, rho_Al = 3160.1, Cp_inlet = 1053.8, k_inlet = 186.82, sigma_inlet = 2.6685E7, rho_inlet = 1378, Cp_outlet = 822.18, k_outlet = 89.584, sigma_outlet = 5.062E7, rho_outlet = 2658.4, Cp_outlet_sleeve = 577.94, k_outlet_sleeve = 183.64, sigma_outlet_sleeve = 2.8102E7, rho_outlet_sleeve = 2683.9, Cp_inlet_sleeve = 842.58, k_inlet_sleeve = 169.63, sigma_inlet_sleeve = 4.5599E7, rho_inlet_sleeve = 2332.7) (degC), Point: 98Temperature (Cp_Al = 550.98, k_Al = 99.275, sigma_Al = 4.957E7, rho_Al = 3160.1, Cp_inlet = 1053.8, k_inlet = 186.82, sigma_inlet = 2.6685E7, rho_inlet = 1378, Cp_outlet = 822.18, k_outlet = 89.584, sigma_outlet = 5.062E7, rho_outlet = 2658.4, Cp_outlet_sleeve = 577.94, k_outlet_sleeve = 183.64, sigma_outlet_sleeve = 2.8102E7, rho_outlet_sleeve = 2683.9, Cp_inlet_sleeve = 842.58, k_inlet_sleeve = 169.63, sigma_inlet_sleeve = 4.5599E7, rho_inlet_sleeve = 2332.7) (degC), Point: 102Temperature (Cp_Al = 550.98, k_Al = 99.275, sigma_Al = 4.957E7, rho_Al = 3160.1, Cp_inlet = 1053.8, k_inlet = 186.82, sigma_inlet = 2.6685E7, rho_inlet = 1378, Cp_outlet = 822.18, k_outlet = 89.584, sigma_outlet = 5.062E7, rho_outlet = 2658.4, Cp_outlet_sleeve = 577.94, k_outlet_sleeve = 183.64, sigma_outlet_sleeve = 2.8102E7, rho_outlet_sleeve = 2683.9, Cp_inlet_sleeve = 842.58, k_inlet_sleeve = 169.63, sigma_inlet_sleeve = 4.5599E7, rho_inlet_sleeve = 2332.7) (degC), Point: 127Temperature (Cp_Al = 550.98, k_Al = 99.275, sigma_Al = 4.957E7, rho_Al = 3160.1, Cp_inlet = 1053.8, k_inlet = 186.82, sigma_inlet = 2.6685E7, rho_inlet = 1378, Cp_outlet = 822.18, k_outlet = 89.584, sigma_outlet = 5.062E7, rho_outlet = 2658.4, Cp_outlet_sleeve = 577.94, k_outlet_sleeve = 183.64, sigma_outlet_sleeve = 2.8102E7, rho_outlet_sleeve = 2683.9, Cp_inlet_sleeve = 842.58, k_inlet_sleeve = 169.63, sigma_inlet_sleeve = 4.5599E7, rho_inlet_sleeve = 2332.7) (degC), Point: 128Temperature (Cp_Al = 550.98, k_Al = 99.275, sigma_Al = 4.957E7, rho_Al = 3160.1, Cp_inlet = 1053.8, k_inlet = 186.82, sigma_inlet = 2.6685E7, rho_inlet = 1378, Cp_outlet = 822.18, k_outlet = 89.584, sigma_outlet = 5.062E7, rho_outlet = 2658.4, Cp_outlet_sleeve = 577.94, k_outlet_sleeve = 183.64, sigma_outlet_sleeve = 2.8102E7, rho_outlet_sleeve = 2683.9, Cp_inlet_sleeve = 842.58, k_inlet_sleeve = 169.63, sigma_inlet_sleeve = 4.5599E7, rho_inlet_sleeve = 2332.7) (degC), Point: 134Temperature (Cp_Al = 550.98, k_Al = 99.275, sigma_Al = 4.957E7, rho_Al = 3160.1, Cp_inlet = 1053.8, k_inlet = 186.82, sigma_inlet = 2.6685E7, rho_inlet = 1378, Cp_outlet = 822.18, k_outlet = 89.584, sigma_outlet = 5.062E7, rho_outlet = 2658.4, Cp_outlet_sleeve = 577.94, k_outlet_sleeve = 183.64, sigma_outlet_sleeve = 2.8102E7, rho_outlet_sleeve = 2683.9, Cp_inlet_sleeve = 842.58, k_inlet_sleeve = 169.63, sigma_inlet_sleeve = 4.5599E7, rho_inlet_sleeve = 2332.7) (degC), Point: 138Temperature (Cp_Al = 550.98, k_Al = 99.275, sigma_Al = 4.957E7, rho_Al = 3160.1, Cp_inlet = 1053.8, k_inlet = 186.82, sigma_inlet = 2.6685E7, rho_inlet = 1378, Cp_outlet = 822.18, k_outlet = 89.584, sigma_outlet = 5.062E7, rho_outlet = 2658.4, Cp_outlet_sleeve = 577.94, k_outlet_sleeve = 183.64, sigma_outlet_sleeve = 2.8102E7, rho_outlet_sleeve = 2683.9, Cp_inlet_sleeve = 842.58, k_inlet_sleeve = 169.63, sigma_inlet_sleeve = 4.5599E7, rho_inlet_sleeve = 2332.7) (degC), Point: 151Temperature (Cp_Al = 550.98, k_Al = 99.275, sigma_Al = 4.957E7, rho_Al = 3160.1, Cp_inlet = 1053.8, k_inlet = 186.82, sigma_inlet = 2.6685E7, rho_inlet = 1378, Cp_outlet = 822.18, k_outlet = 89.584, sigma_outlet = 5.062E7, rho_outlet = 2658.4, Cp_outlet_sleeve = 577.94, k_outlet_sleeve = 183.64, sigma_outlet_sleeve = 2.8102E7, rho_outlet_sleeve = 2683.9, Cp_inlet_sleeve = 842.58, k_inlet_sleeve = 169.63, sigma_inlet_sleeve = 4.5599E7, rho_inlet_sleeve = 2332.7) (degC), Point: 154Temperature (Cp_Al = 550.98, k_Al = 99.275, sigma_Al = 4.957E7, rho_Al = 3160.1, Cp_inlet = 1053.8, k_inlet = 186.82, sigma_inlet = 2.6685E7, rho_inlet = 1378, Cp_outlet = 822.18, k_outlet = 89.584, sigma_outlet = 5.062E7, rho_outlet = 2658.4, Cp_outlet_sleeve = 577.94, k_outlet_sleeve = 183.64, sigma_outlet_sleeve = 2.8102E7, rho_outlet_sleeve = 2683.9, Cp_inlet_sleeve = 842.58, k_inlet_sleeve = 169.63, sigma_inlet_sleeve = 4.5599E7, rho_inlet_sleeve = 2332.7) (degC), Point: 159Temperature (Cp_Al = 550.98, k_Al = 99.275, sigma_Al = 4.957E7, rho_Al = 3160.1, Cp_inlet = 1053.8, k_inlet = 186.82, sigma_inlet = 2.6685E7, rho_inlet = 1378, Cp_outlet = 822.18, k_outlet = 89.584, sigma_outlet = 5.062E7, rho_outlet = 2658.4, Cp_outlet_sleeve = 577.94, k_outlet_sleeve = 183.64, sigma_outlet_sleeve = 2.8102E7, rho_outlet_sleeve = 2683.9, Cp_inlet_sleeve = 842.58, k_inlet_sleeve = 169.63, sigma_inlet_sleeve = 4.5599E7, rho_inlet_sleeve = 2332.7) (degC), Point: 163Temperature (Cp_Al = 550.98, k_Al = 99.275, sigma_Al = 4.957E7, rho_Al = 3160.1, Cp_inlet = 1053.8, k_inlet = 186.82, sigma_inlet = 2.6685E7, rho_inlet = 1378, Cp_outlet = 822.18, k_outlet = 89.584, sigma_outlet = 5.062E7, rho_outlet = 2658.4, Cp_outlet_sleeve = 577.94, k_outlet_sleeve = 183.64, sigma_outlet_sleeve = 2.8102E7, rho_outlet_sleeve = 2683.9, Cp_inlet_sleeve = 842.58, k_inlet_sleeve = 169.63, sigma_inlet_sleeve = 4.5599E7, rho_inlet_sleeve = 2332.7) (degC), Point: 167Temperature (Cp_Al = 550.98, k_Al = 99.275, sigma_Al = 4.957E7, rho_Al = 3160.1, Cp_inlet = 1053.8, k_inlet = 186.82, sigma_inlet = 2.6685E7, rho_inlet = 1378, Cp_outlet = 822.18, k_outlet = 89.584, sigma_outlet = 5.062E7, rho_outlet = 2658.4, Cp_outlet_sleeve = 577.94, k_outlet_sleeve = 183.64, sigma_outlet_sleeve = 2.8102E7, rho_outlet_sleeve = 2683.9, Cp_inlet_sleeve = 842.58, k_inlet_sleeve = 169.63, sigma_inlet_sleeve = 4.5599E7, rho_inlet_sleeve = 2332.7) (degC), Point: 168Temperature (Cp_Al = 550.98, k_Al = 99.275, sigma_Al = 4.957E7, rho_Al = 3160.1, Cp_inlet = 1053.8, k_inlet = 186.82, sigma_inlet = 2.6685E7, rho_inlet = 1378, Cp_outlet = 822.18, k_outlet = 89.584, sigma_outlet = 5.062E7, rho_outlet = 2658.4, Cp_outlet_sleeve = 577.94, k_outlet_sleeve = 183.64, sigma_outlet_sleeve = 2.8102E7, rho_outlet_sleeve = 2683.9, Cp_inlet_sleeve = 842.58, k_inlet_sleeve = 169.63, sigma_inlet_sleeve = 4.5599E7, rho_inlet_sleeve = 2332.7) (degC), Point: 172Temperature (Cp_Al = 550.98, k_Al = 99.275, sigma_Al = 4.957E7, rho_Al = 3160.1, Cp_inlet = 1053.8, k_inlet = 186.82, sigma_inlet = 2.6685E7, rho_inlet = 1378, Cp_outlet = 822.18, k_outlet = 89.584, sigma_outlet = 5.062E7, rho_outlet = 2658.4, Cp_outlet_sleeve = 577.94, k_outlet_sleeve = 183.64, sigma_outlet_sleeve = 2.8102E7, rho_outlet_sleeve = 2683.9, Cp_inlet_sleeve = 842.58, k_inlet_sleeve = 169.63, sigma_inlet_sleeve = 4.5599E7, rho_inlet_sleeve = 2332.7) (degC), Point: 181Temperature (Cp_Al = 550.98, k_Al = 99.275, sigma_Al = 4.957E7, rho_Al = 3160.1, Cp_inlet = 1053.8, k_inlet = 186.82, sigma_inlet = 2.6685E7, rho_inlet = 1378, Cp_outlet = 822.18, k_outlet = 89.584, sigma_outlet = 5.062E7, rho_outlet = 2658.4, Cp_outlet_sleeve = 577.94, k_outlet_sleeve = 183.64, sigma_outlet_sleeve = 2.8102E7, rho_outlet_sleeve = 2683.9, Cp_inlet_sleeve = 842.58, k_inlet_sleeve = 169.63, sigma_inlet_sleeve = 4.5599E7, rho_inlet_sleeve = 2332.7) (degC), Point: 201Temperature (Cp_Al = 550.98, k_Al = 99.275, sigma_Al = 4.957E7, rho_Al = 3160.1, Cp_inlet = 1053.8, k_inlet = 186.82, sigma_inlet = 2.6685E7, rho_inlet = 1378, Cp_outlet = 822.18, k_outlet = 89.584, sigma_outlet = 5.062E7, rho_outlet = 2658.4, Cp_outlet_sleeve = 577.94, k_outlet_sleeve = 183.64, sigma_outlet_sleeve = 2.8102E7, rho_outlet_sleeve = 2683.9, Cp_inlet_sleeve = 842.58, k_inlet_sleeve = 169.63, sigma_inlet_sleeve = 4.5599E7, rho_inlet_sleeve = 2332.7) (degC), Point: 210Temperature (Cp_Al = 550.98, k_Al = 99.275, sigma_Al = 4.957E7, rho_Al = 3160.1, Cp_inlet = 1053.8, k_inlet = 186.82, sigma_inlet = 2.6685E7, rho_inlet = 1378, Cp_outlet = 822.18, k_outlet = 89.584, sigma_outlet = 5.062E7, rho_outlet = 2658.4, Cp_outlet_sleeve = 577.94, k_outlet_sleeve = 183.64, sigma_outlet_sleeve = 2.8102E7, rho_outlet_sleeve = 2683.9, Cp_inlet_sleeve = 842.58, k_inlet_sleeve = 169.63, sigma_inlet_sleeve = 4.5599E7, rho_inlet_sleeve = 2332.7) (degC), Point: 213Temperature (Cp_Al = 550.98, k_Al = 99.275, sigma_Al = 4.957E7, rho_Al = 3160.1, Cp_inlet = 1053.8, k_inlet = 186.82, sigma_inlet = 2.6685E7, rho_inlet = 1378, Cp_outlet = 822.18, k_outlet = 89.584, sigma_outlet = 5.062E7, rho_outlet = 2658.4, Cp_outlet_sleeve = 577.94, k_outlet_sleeve = 183.64, sigma_outlet_sleeve = 2.8102E7, rho_outlet_sleeve = 2683.9, Cp_inlet_sleeve = 842.58, k_inlet_sleeve = 169.63, sigma_inlet_sleeve = 4.5599E7, rho_inlet_sleeve = 2332.7) (degC), Point: 215Temperature (Cp_Al = 550.98, k_Al = 99.275, sigma_Al = 4.957E7, rho_Al = 3160.1, Cp_inlet = 1053.8, k_inlet = 186.82, sigma_inlet = 2.6685E7, rho_inlet = 1378, Cp_outlet = 822.18, k_outlet = 89.584, sigma_outlet = 5.062E7, rho_outlet = 2658.4, Cp_outlet_sleeve = 577.94, k_outlet_sleeve = 183.64, sigma_outlet_sleeve = 2.8102E7, rho_outlet_sleeve = 2683.9, Cp_inlet_sleeve = 842.58, k_inlet_sleeve = 169.63, sigma_inlet_sleeve = 4.5599E7, rho_inlet_sleeve = 2332.7) (degC), Point: 229Temperature (Cp_Al = 550.98, k_Al = 99.275, sigma_Al = 4.957E7, rho_Al = 3160.1, Cp_inlet = 1053.8, k_inlet = 186.82, sigma_inlet = 2.6685E7, rho_inlet = 1378, Cp_outlet = 822.18, k_outlet = 89.584, sigma_outlet = 5.062E7, rho_outlet = 2658.4, Cp_outlet_sleeve = 577.94, k_outlet_sleeve = 183.64, sigma_outlet_sleeve = 2.8102E7, rho_outlet_sleeve = 2683.9, Cp_inlet_sleeve = 842.58, k_inlet_sleeve = 169.63, sigma_inlet_sleeve = 4.5599E7, rho_inlet_sleeve = 2332.7) (degC), Point: 232Temperature (Cp_Al = 550.98, k_Al = 99.275, sigma_Al = 4.957E7, rho_Al = 3160.1, Cp_inlet = 1053.8, k_inlet = 186.82, sigma_inlet = 2.6685E7, rho_inlet = 1378, Cp_outlet = 822.18, k_outlet = 89.584, sigma_outlet = 5.062E7, rho_outlet = 2658.4, Cp_outlet_sleeve = 577.94, k_outlet_sleeve = 183.64, sigma_outlet_sleeve = 2.8102E7, rho_outlet_sleeve = 2683.9, Cp_inlet_sleeve = 842.58, k_inlet_sleeve = 169.63, sigma_inlet_sleeve = 4.5599E7, rho_inlet_sleeve = 2332.7) (degC), Point: 239Temperature (Cp_Al = 550.98, k_Al = 99.275, sigma_Al = 4.957E7, rho_Al = 3160.1, Cp_inlet = 1053.8, k_inlet = 186.82, sigma_inlet = 2.6685E7, rho_inlet = 1378, Cp_outlet = 822.18, k_outlet = 89.584, sigma_outlet = 5.062E7, rho_outlet = 2658.4, Cp_outlet_sleeve = 577.94, k_outlet_sleeve = 183.64, sigma_outlet_sleeve = 2.8102E7, rho_outlet_sleeve = 2683.9, Cp_inlet_sleeve = 842.58, k_inlet_sleeve = 169.63, sigma_inlet_sleeve = 4.5599E7, rho_inlet_sleeve = 2332.7) (degC), Point: 252Temperature (Cp_Al = 550.98, k_Al = 99.275, sigma_Al = 4.957E7, rho_Al = 3160.1, Cp_inlet = 1053.8, k_inlet = 186.82, sigma_inlet = 2.6685E7, rho_inlet = 1378, Cp_outlet = 822.18, k_outlet = 89.584, sigma_outlet = 5.062E7, rho_outlet = 2658.4, Cp_outlet_sleeve = 577.94, k_outlet_sleeve = 183.64, sigma_outlet_sleeve = 2.8102E7, rho_outlet_sleeve = 2683.9, Cp_inlet_sleeve = 842.58, k_inlet_sleeve = 169.63, sigma_inlet_sleeve = 4.5599E7, rho_inlet_sleeve = 2332.7) (degC), Point: 261Temperature (Cp_Al = 550.98, k_Al = 99.275, sigma_Al = 4.957E7, rho_Al = 3160.1, Cp_inlet = 1053.8, k_inlet = 186.82, sigma_inlet = 2.6685E7, rho_inlet = 1378, Cp_outlet = 822.18, k_outlet = 89.584, sigma_outlet = 5.062E7, rho_outlet = 2658.4, Cp_outlet_sleeve = 577.94, k_outlet_sleeve = 183.64, sigma_outlet_sleeve = 2.8102E7, rho_outlet_sleeve = 2683.9, Cp_inlet_sleeve = 842.58, k_inlet_sleeve = 169.63, sigma_inlet_sleeve = 4.5599E7, rho_inlet_sleeve = 2332.7) (degC), Point: 270Temperature (Cp_Al = 550.98, k_Al = 99.275, sigma_Al = 4.957E7, rho_Al = 3160.1, Cp_inlet = 1053.8, k_inlet = 186.82, sigma_inlet = 2.6685E7, rho_inlet = 1378, Cp_outlet = 822.18, k_outlet = 89.584, sigma_outlet = 5.062E7, rho_outlet = 2658.4, Cp_outlet_sleeve = 577.94, k_outlet_sleeve = 183.64, sigma_outlet_sleeve = 2.8102E7, rho_outlet_sleeve = 2683.9, Cp_inlet_sleeve = 842.58, k_inlet_sleeve = 169.63, sigma_inlet_sleeve = 4.5599E7, rho_inlet_sleeve = 2332.7) (degC), Point: 273Temperature (Cp_Al = 550.98, k_Al = 99.275, sigma_Al = 4.957E7, rho_Al = 3160.1, Cp_inlet = 1053.8, k_inlet = 186.82, sigma_inlet = 2.6685E7, rho_inlet = 1378, Cp_outlet = 822.18, k_outlet = 89.584, sigma_outlet = 5.062E7, rho_outlet = 2658.4, Cp_outlet_sleeve = 577.94, k_outlet_sleeve = 183.64, sigma_outlet_sleeve = 2.8102E7, rho_outlet_sleeve = 2683.9, Cp_inlet_sleeve = 842.58, k_inlet_sleeve = 169.63, sigma_inlet_sleeve = 4.5599E7, rho_inlet_sleeve = 2332.7) (degC), Point: 275
0                        21.75864529341618        21.019132982485814       21.131607796181527       21.008202909701254       21.016120611417136       21.109521703198197       21.011229213841375       21.033357789089337       21.001663675848192       21.02497431659509        21.001545878093566       21.000774878898085       21.009555902298302       21.00012335556113        21.009908158966482       21.025271040474877       21.000058613268664       21.011596043734983       21.000725740714756       21.000310685466673       21.001808501158735       21.00021528242445        21.000329118599495       21.01123427325325        21.12010330294396        21.015448791830124       21.688917062907535       21.008024689748368       21.14437144305259        21.022082693061577       21.84344678781389
3                        345.5815728172065        316.5417764534458        326.5758150643604        322.21006654061875       311.14252344552335       326.6865644575969        325.9945235785344        311.45853331931744       306.0133110720277        319.63378493372136       322.75961914256254       315.4388927893333        311.6710333046782        296.6482506210789        301.99773225329466       277.1306236330039        272.9455552695721        279.9676521809537        280.689620877239         274.10031366072974       274.26224575739514       270.1676880502564        272.7517350691569        327.67378358079725       328.8006470482759        312.39009704262116       344.8820792689653        323.5306981841236        327.9263082681273        314.47460516614774       348.1079874327884
6                        484.26374816175996       453.6276529108758        468.5488382505814        465.3261408220367        445.3190266800609        465.3341592648021        465.5864614343715        447.1822712510824        440.0262040203419        458.18091696988074       462.2597907085948        454.91038376318795       450.189562528744         430.61528841039774       437.67012829120654       413.97955759968374       408.09975966222953       420.27285192547447       422.1945833744336        415.7219282414886        414.76402713852724       405.7476005475494        409.9559508681126        467.06087610157226       467.2093817502597        446.19082432616415       480.4187784017539        463.337108086855         466.5623191588496        447.8957640974231        483.2796012487538
9                        566.807444710464         535.2769304488629        553.305472005837         551.0211497204791        521.5926521445348        544.4320278578235        545.4789499887085        524.2648181082682        516.1927903540127        537.2160504076714        542.0957782135646        534.7419829435751        529.2196360947456        506.7702369128077        514.7340509230287        495.260348957387         488.43101668171164       503.8460322408615        506.7316295754225        500.4432338950762        498.56261937970976       486.41855617976285       491.54028682797616       546.8427505586817        546.1696177707825        522.2368822353238        557.3946748990406        546.8628824690265        549.1386934416455        527.1756930200005        563.5473842898484
12                       624.6265340201209        592.5106162818945        612.6856461808829        611.107117238186         575.1949721586673        600.0731017951603        601.7549441047564        578.406391243448         569.725115441569         592.8170723316153        598.3359517697578        590.9843430970901        584.8220122558012        560.2994078222739        568.866935614446         552.3045451557467        544.8532695309227        562.5072629892019        566.1178025716819        559.9118800942414        557.331758093818         543.0208250096829        548.7414446591564        603.0548660505264        601.72646807894          575.694770054826         611.4702847650373        605.6056519619863        607.1622949784226        582.9182297229323        619.9377801038474
15                       667.3938351290117        634.8849388207444        656.5716566198205        655.5240773889744        615.76410265899          642.1985297931784        644.4009691648268        619.3636538436177        610.2483800384127        634.9170325551964        640.9593537396606        633.6117372380904        626.9250210857446        600.8218906183542        609.8191084889286        594.5887756855028        586.7203660906105        605.9491458492555        610.1047519244406        603.9552962622495        600.84323121672          584.9965986112531        591.121017427864         645.6642998495772        643.7996417820028        616.1704740004287        652.3852329648939        649.2026146056032        650.2127937976536        624.355127290181         661.8109835440085
18                       701.5501861085337        668.7620460666217        691.5619803628739        690.9228128110423        649.2465868886086        676.9355541165653        679.5736303180292        653.150303875357         643.6995974458613        669.637213030466         676.1171300463907        668.7731930024836        661.6479175801883        634.2721717271037        643.6014745058333        628.4281219231721        620.2638483605357        640.6507010087959        645.2255346727045        639.1245909246438        635.5988738261588        618.6128965451315        625.0258128350827        680.8148132214158        678.502101585816         649.5888171696287        686.1424671807711        684.0830740337972        684.6683872418529        657.6157111971548        695.3826600925163
21                       730.7726966349203        697.772370659385         721.4392595668775        721.1269144292278        678.6478224129734        707.3767876791348        710.3816311697665        682.8015757484219        673.0783788028058        700.0666600223904        706.9147499813337        699.5736857579453        692.0793285139604        663.6494575385514        673.2486154023107        657.4296146503142        649.0410732927087        670.3285786823651        675.238926740859         669.1797667153359        665.3201577939852        647.441461168501         654.0745309601263        711.6082588073175        708.9187293846256        678.9431362678251        715.7717255678865        713.9398178504146        714.1821612730705        686.1946911599857        724.1984269999299
24                       756.6231947724244        723.4570035132988        747.8169668012227        747.7719753359098        705.0854925608129        734.6745907515223        737.9856337915638        709.4452092533589        699.4998016259322        727.3561618952726        734.511464936656         727.1725917654281        719.3702023516239        690.0691065262464        699.8883919005411        683.1249238024554        674.5616364921018        696.5678986336105        701.7526812615023        695.7296863211461        691.594938518126         672.9989750514679        679.8046780944522        739.2026667601609        736.1988171214034        705.3461438114958        742.398689225478         740.3529166217106        740.3126796328           711.5756446368387        749.7644323870015
27                       780.2017407150814        746.9013084485994        771.8328382415237        772.0122839113468        729.3312325407315        759.628795758868         763.1933792059882        733.8602379836454        723.7335790098211        752.3044083664012        759.7139949382637        752.376821007991         744.3194396546553        714.30113891826          724.3000079986721        706.592261571122         697.8880718378991        720.4858773112817        725.9009478932402        719.9100863937326        715.5431329399198        696.3536736395992        703.299291686887         764.4039916957812        761.1400475632678        729.5659068806972        766.8009590407868        764.4372788316592        764.1586609322991        734.8028190744783        773.1410004792525
