% Model:              brazing.mph
% Version:            COMSOL 5.3.0.223
% Date:               Oct 24 2018, 00:24
% Table:              Table 3 - 
% Time (s)               Temperature (Cp_Al = 968.8, k_Al = 166.3, sigma_Al = 3.6616E7, rho_Al = 2606.1, Cp_inlet = 906.2, k_inlet = 168.7, sigma_inlet = 3.9445E7, rho_inlet = 2752.7, Cp_outlet = 820.2, k_outlet = 168.5, sigma_outlet = 4.0143E7, rho_outlet = 2871.3, Cp_outlet_sleeve = 954.3, k_outlet_sleeve = 165.3, sigma_outlet_sleeve = 3.8236E7, rho_outlet_sleeve = 2664.3, Cp_inlet_sleeve = 911, k_inlet_sleeve = 147.4, sigma_inlet_sleeve = 3.9532E7, rho_inlet_sleeve = 2779.7) (degC), Point: 55Temperature (Cp_Al = 968.8, k_Al = 166.3, sigma_Al = 3.6616E7, rho_Al = 2606.1, Cp_inlet = 906.2, k_inlet = 168.7, sigma_inlet = 3.9445E7, rho_inlet = 2752.7, Cp_outlet = 820.2, k_outlet = 168.5, sigma_outlet = 4.0143E7, rho_outlet = 2871.3, Cp_outlet_sleeve = 954.3, k_outlet_sleeve = 165.3, sigma_outlet_sleeve = 3.8236E7, rho_outlet_sleeve = 2664.3, Cp_inlet_sleeve = 911, k_inlet_sleeve = 147.4, sigma_inlet_sleeve = 3.9532E7, rho_inlet_sleeve = 2779.7) (degC), Point: 56Temperature (Cp_Al = 968.8, k_Al = 166.3, sigma_Al = 3.6616E7, rho_Al = 2606.1, Cp_inlet = 906.2, k_inlet = 168.7, sigma_inlet = 3.9445E7, rho_inlet = 2752.7, Cp_outlet = 820.2, k_outlet = 168.5, sigma_outlet = 4.0143E7, rho_outlet = 2871.3, Cp_outlet_sleeve = 954.3, k_outlet_sleeve = 165.3, sigma_outlet_sleeve = 3.8236E7, rho_outlet_sleeve = 2664.3, Cp_inlet_sleeve = 911, k_inlet_sleeve = 147.4, sigma_inlet_sleeve = 3.9532E7, rho_inlet_sleeve = 2779.7) (degC), Point: 60Temperature (Cp_Al = 968.8, k_Al = 166.3, sigma_Al = 3.6616E7, rho_Al = 2606.1, Cp_inlet = 906.2, k_inlet = 168.7, sigma_inlet = 3.9445E7, rho_inlet = 2752.7, Cp_outlet = 820.2, k_outlet = 168.5, sigma_outlet = 4.0143E7, rho_outlet = 2871.3, Cp_outlet_sleeve = 954.3, k_outlet_sleeve = 165.3, sigma_outlet_sleeve = 3.8236E7, rho_outlet_sleeve = 2664.3, Cp_inlet_sleeve = 911, k_inlet_sleeve = 147.4, sigma_inlet_sleeve = 3.9532E7, rho_inlet_sleeve = 2779.7) (degC), Point: 69Temperature (Cp_Al = 968.8, k_Al = 166.3, sigma_Al = 3.6616E7, rho_Al = 2606.1, Cp_inlet = 906.2, k_inlet = 168.7, sigma_inlet = 3.9445E7, rho_inlet = 2752.7, Cp_outlet = 820.2, k_outlet = 168.5, sigma_outlet = 4.0143E7, rho_outlet = 2871.3, Cp_outlet_sleeve = 954.3, k_outlet_sleeve = 165.3, sigma_outlet_sleeve = 3.8236E7, rho_outlet_sleeve = 2664.3, Cp_inlet_sleeve = 911, k_inlet_sleeve = 147.4, sigma_inlet_sleeve = 3.9532E7, rho_inlet_sleeve = 2779.7) (degC), Point: 90Temperature (Cp_Al = 968.8, k_Al = 166.3, sigma_Al = 3.6616E7, rho_Al = 2606.1, Cp_inlet = 906.2, k_inlet = 168.7, sigma_inlet = 3.9445E7, rho_inlet = 2752.7, Cp_outlet = 820.2, k_outlet = 168.5, sigma_outlet = 4.0143E7, rho_outlet = 2871.3, Cp_outlet_sleeve = 954.3, k_outlet_sleeve = 165.3, sigma_outlet_sleeve = 3.8236E7, rho_outlet_sleeve = 2664.3, Cp_inlet_sleeve = 911, k_inlet_sleeve = 147.4, sigma_inlet_sleeve = 3.9532E7, rho_inlet_sleeve = 2779.7) (degC), Point: 98Temperature (Cp_Al = 968.8, k_Al = 166.3, sigma_Al = 3.6616E7, rho_Al = 2606.1, Cp_inlet = 906.2, k_inlet = 168.7, sigma_inlet = 3.9445E7, rho_inlet = 2752.7, Cp_outlet = 820.2, k_outlet = 168.5, sigma_outlet = 4.0143E7, rho_outlet = 2871.3, Cp_outlet_sleeve = 954.3, k_outlet_sleeve = 165.3, sigma_outlet_sleeve = 3.8236E7, rho_outlet_sleeve = 2664.3, Cp_inlet_sleeve = 911, k_inlet_sleeve = 147.4, sigma_inlet_sleeve = 3.9532E7, rho_inlet_sleeve = 2779.7) (degC), Point: 102Temperature (Cp_Al = 968.8, k_Al = 166.3, sigma_Al = 3.6616E7, rho_Al = 2606.1, Cp_inlet = 906.2, k_inlet = 168.7, sigma_inlet = 3.9445E7, rho_inlet = 2752.7, Cp_outlet = 820.2, k_outlet = 168.5, sigma_outlet = 4.0143E7, rho_outlet = 2871.3, Cp_outlet_sleeve = 954.3, k_outlet_sleeve = 165.3, sigma_outlet_sleeve = 3.8236E7, rho_outlet_sleeve = 2664.3, Cp_inlet_sleeve = 911, k_inlet_sleeve = 147.4, sigma_inlet_sleeve = 3.9532E7, rho_inlet_sleeve = 2779.7) (degC), Point: 127Temperature (Cp_Al = 968.8, k_Al = 166.3, sigma_Al = 3.6616E7, rho_Al = 2606.1, Cp_inlet = 906.2, k_inlet = 168.7, sigma_inlet = 3.9445E7, rho_inlet = 2752.7, Cp_outlet = 820.2, k_outlet = 168.5, sigma_outlet = 4.0143E7, rho_outlet = 2871.3, Cp_outlet_sleeve = 954.3, k_outlet_sleeve = 165.3, sigma_outlet_sleeve = 3.8236E7, rho_outlet_sleeve = 2664.3, Cp_inlet_sleeve = 911, k_inlet_sleeve = 147.4, sigma_inlet_sleeve = 3.9532E7, rho_inlet_sleeve = 2779.7) (degC), Point: 128Temperature (Cp_Al = 968.8, k_Al = 166.3, sigma_Al = 3.6616E7, rho_Al = 2606.1, Cp_inlet = 906.2, k_inlet = 168.7, sigma_inlet = 3.9445E7, rho_inlet = 2752.7, Cp_outlet = 820.2, k_outlet = 168.5, sigma_outlet = 4.0143E7, rho_outlet = 2871.3, Cp_outlet_sleeve = 954.3, k_outlet_sleeve = 165.3, sigma_outlet_sleeve = 3.8236E7, rho_outlet_sleeve = 2664.3, Cp_inlet_sleeve = 911, k_inlet_sleeve = 147.4, sigma_inlet_sleeve = 3.9532E7, rho_inlet_sleeve = 2779.7) (degC), Point: 134Temperature (Cp_Al = 968.8, k_Al = 166.3, sigma_Al = 3.6616E7, rho_Al = 2606.1, Cp_inlet = 906.2, k_inlet = 168.7, sigma_inlet = 3.9445E7, rho_inlet = 2752.7, Cp_outlet = 820.2, k_outlet = 168.5, sigma_outlet = 4.0143E7, rho_outlet = 2871.3, Cp_outlet_sleeve = 954.3, k_outlet_sleeve = 165.3, sigma_outlet_sleeve = 3.8236E7, rho_outlet_sleeve = 2664.3, Cp_inlet_sleeve = 911, k_inlet_sleeve = 147.4, sigma_inlet_sleeve = 3.9532E7, rho_inlet_sleeve = 2779.7) (degC), Point: 138Temperature (Cp_Al = 968.8, k_Al = 166.3, sigma_Al = 3.6616E7, rho_Al = 2606.1, Cp_inlet = 906.2, k_inlet = 168.7, sigma_inlet = 3.9445E7, rho_inlet = 2752.7, Cp_outlet = 820.2, k_outlet = 168.5, sigma_outlet = 4.0143E7, rho_outlet = 2871.3, Cp_outlet_sleeve = 954.3, k_outlet_sleeve = 165.3, sigma_outlet_sleeve = 3.8236E7, rho_outlet_sleeve = 2664.3, Cp_inlet_sleeve = 911, k_inlet_sleeve = 147.4, sigma_inlet_sleeve = 3.9532E7, rho_inlet_sleeve = 2779.7) (degC), Point: 151Temperature (Cp_Al = 968.8, k_Al = 166.3, sigma_Al = 3.6616E7, rho_Al = 2606.1, Cp_inlet = 906.2, k_inlet = 168.7, sigma_inlet = 3.9445E7, rho_inlet = 2752.7, Cp_outlet = 820.2, k_outlet = 168.5, sigma_outlet = 4.0143E7, rho_outlet = 2871.3, Cp_outlet_sleeve = 954.3, k_outlet_sleeve = 165.3, sigma_outlet_sleeve = 3.8236E7, rho_outlet_sleeve = 2664.3, Cp_inlet_sleeve = 911, k_inlet_sleeve = 147.4, sigma_inlet_sleeve = 3.9532E7, rho_inlet_sleeve = 2779.7) (degC), Point: 154Temperature (Cp_Al = 968.8, k_Al = 166.3, sigma_Al = 3.6616E7, rho_Al = 2606.1, Cp_inlet = 906.2, k_inlet = 168.7, sigma_inlet = 3.9445E7, rho_inlet = 2752.7, Cp_outlet = 820.2, k_outlet = 168.5, sigma_outlet = 4.0143E7, rho_outlet = 2871.3, Cp_outlet_sleeve = 954.3, k_outlet_sleeve = 165.3, sigma_outlet_sleeve = 3.8236E7, rho_outlet_sleeve = 2664.3, Cp_inlet_sleeve = 911, k_inlet_sleeve = 147.4, sigma_inlet_sleeve = 3.9532E7, rho_inlet_sleeve = 2779.7) (degC), Point: 159Temperature (Cp_Al = 968.8, k_Al = 166.3, sigma_Al = 3.6616E7, rho_Al = 2606.1, Cp_inlet = 906.2, k_inlet = 168.7, sigma_inlet = 3.9445E7, rho_inlet = 2752.7, Cp_outlet = 820.2, k_outlet = 168.5, sigma_outlet = 4.0143E7, rho_outlet = 2871.3, Cp_outlet_sleeve = 954.3, k_outlet_sleeve = 165.3, sigma_outlet_sleeve = 3.8236E7, rho_outlet_sleeve = 2664.3, Cp_inlet_sleeve = 911, k_inlet_sleeve = 147.4, sigma_inlet_sleeve = 3.9532E7, rho_inlet_sleeve = 2779.7) (degC), Point: 163Temperature (Cp_Al = 968.8, k_Al = 166.3, sigma_Al = 3.6616E7, rho_Al = 2606.1, Cp_inlet = 906.2, k_inlet = 168.7, sigma_inlet = 3.9445E7, rho_inlet = 2752.7, Cp_outlet = 820.2, k_outlet = 168.5, sigma_outlet = 4.0143E7, rho_outlet = 2871.3, Cp_outlet_sleeve = 954.3, k_outlet_sleeve = 165.3, sigma_outlet_sleeve = 3.8236E7, rho_outlet_sleeve = 2664.3, Cp_inlet_sleeve = 911, k_inlet_sleeve = 147.4, sigma_inlet_sleeve = 3.9532E7, rho_inlet_sleeve = 2779.7) (degC), Point: 167Temperature (Cp_Al = 968.8, k_Al = 166.3, sigma_Al = 3.6616E7, rho_Al = 2606.1, Cp_inlet = 906.2, k_inlet = 168.7, sigma_inlet = 3.9445E7, rho_inlet = 2752.7, Cp_outlet = 820.2, k_outlet = 168.5, sigma_outlet = 4.0143E7, rho_outlet = 2871.3, Cp_outlet_sleeve = 954.3, k_outlet_sleeve = 165.3, sigma_outlet_sleeve = 3.8236E7, rho_outlet_sleeve = 2664.3, Cp_inlet_sleeve = 911, k_inlet_sleeve = 147.4, sigma_inlet_sleeve = 3.9532E7, rho_inlet_sleeve = 2779.7) (degC), Point: 168Temperature (Cp_Al = 968.8, k_Al = 166.3, sigma_Al = 3.6616E7, rho_Al = 2606.1, Cp_inlet = 906.2, k_inlet = 168.7, sigma_inlet = 3.9445E7, rho_inlet = 2752.7, Cp_outlet = 820.2, k_outlet = 168.5, sigma_outlet = 4.0143E7, rho_outlet = 2871.3, Cp_outlet_sleeve = 954.3, k_outlet_sleeve = 165.3, sigma_outlet_sleeve = 3.8236E7, rho_outlet_sleeve = 2664.3, Cp_inlet_sleeve = 911, k_inlet_sleeve = 147.4, sigma_inlet_sleeve = 3.9532E7, rho_inlet_sleeve = 2779.7) (degC), Point: 172Temperature (Cp_Al = 968.8, k_Al = 166.3, sigma_Al = 3.6616E7, rho_Al = 2606.1, Cp_inlet = 906.2, k_inlet = 168.7, sigma_inlet = 3.9445E7, rho_inlet = 2752.7, Cp_outlet = 820.2, k_outlet = 168.5, sigma_outlet = 4.0143E7, rho_outlet = 2871.3, Cp_outlet_sleeve = 954.3, k_outlet_sleeve = 165.3, sigma_outlet_sleeve = 3.8236E7, rho_outlet_sleeve = 2664.3, Cp_inlet_sleeve = 911, k_inlet_sleeve = 147.4, sigma_inlet_sleeve = 3.9532E7, rho_inlet_sleeve = 2779.7) (degC), Point: 181Temperature (Cp_Al = 968.8, k_Al = 166.3, sigma_Al = 3.6616E7, rho_Al = 2606.1, Cp_inlet = 906.2, k_inlet = 168.7, sigma_inlet = 3.9445E7, rho_inlet = 2752.7, Cp_outlet = 820.2, k_outlet = 168.5, sigma_outlet = 4.0143E7, rho_outlet = 2871.3, Cp_outlet_sleeve = 954.3, k_outlet_sleeve = 165.3, sigma_outlet_sleeve = 3.8236E7, rho_outlet_sleeve = 2664.3, Cp_inlet_sleeve = 911, k_inlet_sleeve = 147.4, sigma_inlet_sleeve = 3.9532E7, rho_inlet_sleeve = 2779.7) (degC), Point: 201Temperature (Cp_Al = 968.8, k_Al = 166.3, sigma_Al = 3.6616E7, rho_Al = 2606.1, Cp_inlet = 906.2, k_inlet = 168.7, sigma_inlet = 3.9445E7, rho_inlet = 2752.7, Cp_outlet = 820.2, k_outlet = 168.5, sigma_outlet = 4.0143E7, rho_outlet = 2871.3, Cp_outlet_sleeve = 954.3, k_outlet_sleeve = 165.3, sigma_outlet_sleeve = 3.8236E7, rho_outlet_sleeve = 2664.3, Cp_inlet_sleeve = 911, k_inlet_sleeve = 147.4, sigma_inlet_sleeve = 3.9532E7, rho_inlet_sleeve = 2779.7) (degC), Point: 210Temperature (Cp_Al = 968.8, k_Al = 166.3, sigma_Al = 3.6616E7, rho_Al = 2606.1, Cp_inlet = 906.2, k_inlet = 168.7, sigma_inlet = 3.9445E7, rho_inlet = 2752.7, Cp_outlet = 820.2, k_outlet = 168.5, sigma_outlet = 4.0143E7, rho_outlet = 2871.3, Cp_outlet_sleeve = 954.3, k_outlet_sleeve = 165.3, sigma_outlet_sleeve = 3.8236E7, rho_outlet_sleeve = 2664.3, Cp_inlet_sleeve = 911, k_inlet_sleeve = 147.4, sigma_inlet_sleeve = 3.9532E7, rho_inlet_sleeve = 2779.7) (degC), Point: 213Temperature (Cp_Al = 968.8, k_Al = 166.3, sigma_Al = 3.6616E7, rho_Al = 2606.1, Cp_inlet = 906.2, k_inlet = 168.7, sigma_inlet = 3.9445E7, rho_inlet = 2752.7, Cp_outlet = 820.2, k_outlet = 168.5, sigma_outlet = 4.0143E7, rho_outlet = 2871.3, Cp_outlet_sleeve = 954.3, k_outlet_sleeve = 165.3, sigma_outlet_sleeve = 3.8236E7, rho_outlet_sleeve = 2664.3, Cp_inlet_sleeve = 911, k_inlet_sleeve = 147.4, sigma_inlet_sleeve = 3.9532E7, rho_inlet_sleeve = 2779.7) (degC), Point: 215Temperature (Cp_Al = 968.8, k_Al = 166.3, sigma_Al = 3.6616E7, rho_Al = 2606.1, Cp_inlet = 906.2, k_inlet = 168.7, sigma_inlet = 3.9445E7, rho_inlet = 2752.7, Cp_outlet = 820.2, k_outlet = 168.5, sigma_outlet = 4.0143E7, rho_outlet = 2871.3, Cp_outlet_sleeve = 954.3, k_outlet_sleeve = 165.3, sigma_outlet_sleeve = 3.8236E7, rho_outlet_sleeve = 2664.3, Cp_inlet_sleeve = 911, k_inlet_sleeve = 147.4, sigma_inlet_sleeve = 3.9532E7, rho_inlet_sleeve = 2779.7) (degC), Point: 229Temperature (Cp_Al = 968.8, k_Al = 166.3, sigma_Al = 3.6616E7, rho_Al = 2606.1, Cp_inlet = 906.2, k_inlet = 168.7, sigma_inlet = 3.9445E7, rho_inlet = 2752.7, Cp_outlet = 820.2, k_outlet = 168.5, sigma_outlet = 4.0143E7, rho_outlet = 2871.3, Cp_outlet_sleeve = 954.3, k_outlet_sleeve = 165.3, sigma_outlet_sleeve = 3.8236E7, rho_outlet_sleeve = 2664.3, Cp_inlet_sleeve = 911, k_inlet_sleeve = 147.4, sigma_inlet_sleeve = 3.9532E7, rho_inlet_sleeve = 2779.7) (degC), Point: 232Temperature (Cp_Al = 968.8, k_Al = 166.3, sigma_Al = 3.6616E7, rho_Al = 2606.1, Cp_inlet = 906.2, k_inlet = 168.7, sigma_inlet = 3.9445E7, rho_inlet = 2752.7, Cp_outlet = 820.2, k_outlet = 168.5, sigma_outlet = 4.0143E7, rho_outlet = 2871.3, Cp_outlet_sleeve = 954.3, k_outlet_sleeve = 165.3, sigma_outlet_sleeve = 3.8236E7, rho_outlet_sleeve = 2664.3, Cp_inlet_sleeve = 911, k_inlet_sleeve = 147.4, sigma_inlet_sleeve = 3.9532E7, rho_inlet_sleeve = 2779.7) (degC), Point: 239Temperature (Cp_Al = 968.8, k_Al = 166.3, sigma_Al = 3.6616E7, rho_Al = 2606.1, Cp_inlet = 906.2, k_inlet = 168.7, sigma_inlet = 3.9445E7, rho_inlet = 2752.7, Cp_outlet = 820.2, k_outlet = 168.5, sigma_outlet = 4.0143E7, rho_outlet = 2871.3, Cp_outlet_sleeve = 954.3, k_outlet_sleeve = 165.3, sigma_outlet_sleeve = 3.8236E7, rho_outlet_sleeve = 2664.3, Cp_inlet_sleeve = 911, k_inlet_sleeve = 147.4, sigma_inlet_sleeve = 3.9532E7, rho_inlet_sleeve = 2779.7) (degC), Point: 252Temperature (Cp_Al = 968.8, k_Al = 166.3, sigma_Al = 3.6616E7, rho_Al = 2606.1, Cp_inlet = 906.2, k_inlet = 168.7, sigma_inlet = 3.9445E7, rho_inlet = 2752.7, Cp_outlet = 820.2, k_outlet = 168.5, sigma_outlet = 4.0143E7, rho_outlet = 2871.3, Cp_outlet_sleeve = 954.3, k_outlet_sleeve = 165.3, sigma_outlet_sleeve = 3.8236E7, rho_outlet_sleeve = 2664.3, Cp_inlet_sleeve = 911, k_inlet_sleeve = 147.4, sigma_inlet_sleeve = 3.9532E7, rho_inlet_sleeve = 2779.7) (degC), Point: 261Temperature (Cp_Al = 968.8, k_Al = 166.3, sigma_Al = 3.6616E7, rho_Al = 2606.1, Cp_inlet = 906.2, k_inlet = 168.7, sigma_inlet = 3.9445E7, rho_inlet = 2752.7, Cp_outlet = 820.2, k_outlet = 168.5, sigma_outlet = 4.0143E7, rho_outlet = 2871.3, Cp_outlet_sleeve = 954.3, k_outlet_sleeve = 165.3, sigma_outlet_sleeve = 3.8236E7, rho_outlet_sleeve = 2664.3, Cp_inlet_sleeve = 911, k_inlet_sleeve = 147.4, sigma_inlet_sleeve = 3.9532E7, rho_inlet_sleeve = 2779.7) (degC), Point: 270Temperature (Cp_Al = 968.8, k_Al = 166.3, sigma_Al = 3.6616E7, rho_Al = 2606.1, Cp_inlet = 906.2, k_inlet = 168.7, sigma_inlet = 3.9445E7, rho_inlet = 2752.7, Cp_outlet = 820.2, k_outlet = 168.5, sigma_outlet = 4.0143E7, rho_outlet = 2871.3, Cp_outlet_sleeve = 954.3, k_outlet_sleeve = 165.3, sigma_outlet_sleeve = 3.8236E7, rho_outlet_sleeve = 2664.3, Cp_inlet_sleeve = 911, k_inlet_sleeve = 147.4, sigma_inlet_sleeve = 3.9532E7, rho_inlet_sleeve = 2779.7) (degC), Point: 273Temperature (Cp_Al = 968.8, k_Al = 166.3, sigma_Al = 3.6616E7, rho_Al = 2606.1, Cp_inlet = 906.2, k_inlet = 168.7, sigma_inlet = 3.9445E7, rho_inlet = 2752.7, Cp_outlet = 820.2, k_outlet = 168.5, sigma_outlet = 4.0143E7, rho_outlet = 2871.3, Cp_outlet_sleeve = 954.3, k_outlet_sleeve = 165.3, sigma_outlet_sleeve = 3.8236E7, rho_outlet_sleeve = 2664.3, Cp_inlet_sleeve = 911, k_inlet_sleeve = 147.4, sigma_inlet_sleeve = 3.9532E7, rho_inlet_sleeve = 2779.7) (degC), Point: 275
0                        21.55895028840439        21.010433557279555       21.130106531098704       21.008053987434494       21.013042153987726       21.10748166041799        21.00796773446217        21.024090561618834       21.00136841356158        21.024382065961674       21.001130288347156       21.000603856633063       21.009487180088797       21.000106051174214       21.007169237570224       21.018199901031835       21.000050961811553       21.011372156469008       21.000684261177298       21.000280251751633       21.001748707823083       21.000150284198185       21.000231786850293       21.007963821876388       21.11792284327646        21.01252962166143        21.513676429631346       21.007936411931723       21.142786222510665       21.013448982956163       21.621927201428093
3                        282.71191800578026       248.9002089358081        258.1812168809646        253.5107113496084        250.28137977832296       260.7005231689651        258.2105552881801        248.9025888218672        244.46107950715395       253.47158624370502       254.7721048306771        246.840650682582         244.85658198649446       233.88633423605592       238.40903807203694       218.18683870876424       213.89074564129828       222.75259983489707       224.2305771034745        218.38560221130314       217.39256331643253       210.7601016501584        213.3509588323168        260.1908604520578        263.1467621501753        251.91895232846343       286.687344773327         255.2061009659633        260.1609899234131        248.49862403822544       287.0962719204282
6                        398.77739659499287       363.58829884887245       376.0451704446284        371.9429565395541        371.430378340194         386.40565347759593       384.81365436655494       371.88492662765066       365.46861197977614       379.0827655333567        381.2861491706467        373.3419312591727        370.4593723830727        354.880046666401         361.36894123897946       333.2004235948285        327.46386313855146       339.66357191195414       341.7408628370051        335.7553722071973        334.2162145651977        324.4025437450474        328.38424922270144       386.6110254148357        388.64737453892315       372.7699825649797        409.5286473200812        371.5266606086532        375.89714862392475       360.8401540856398        400.91491617215024
9                        468.08512528194615       432.0435668896414        446.9362287994619        443.4852385737097        440.72190790756486       458.94030431341116       458.214245576924         442.2637891303939        434.6757224999401        451.56617002664814       454.63874738879394       446.68931801142173       442.9389815556632        424.08055503139167       431.73150922699244       401.7174020103155        395.0865187307594        409.841182783989         412.59707294625343       406.7267098665949        404.5390304682853        392.261006635866         397.1083592170269        459.91853823096164       461.06831912969733       441.88490934604806       479.8228445730051        441.7879482324905        445.4812832471107        427.8140238067367        468.8118755125695
12                       515.1743922495749        478.55296983036726       495.28870772696246       492.39905346310854       486.35923319460005       506.85563943218233       506.8086174213237        488.5983797691373        480.26044877459367       499.4511195189367        503.204909569454         495.2531984456407        490.8217454624813        469.6597688578307        478.0533978706919        448.3414967491526        441.10266273160573       457.78266784071013       461.1204366820747        455.3274648492353        452.57081149008184       438.41187173630885       443.8507891854349        508.4606801352546        508.9149723580506        487.4105944398832        526.1027793056074        489.9845568192883        493.08741371401845       473.4386761262431        515.0666005501669
15                       551.2175663312856        514.1627587917623        532.3592796374452        529.9421398367557        520.657839616576         542.8437041269399        543.3259099407665        523.3902732805147        514.5228051272799        535.418782030964         539.7033971206749        531.7527965710215        526.7903184146365        503.92033152857744       512.8380379535865        484.0842005609453        476.39227917990297       494.59234509865325       498.4183716432327        492.70242795575336       489.4620159983749        473.8039385804576        479.6863200226991        544.9465603986913        544.8587137233801        521.6341902504612        560.8586613559778        527.1058133550756        529.7083386310185        508.4874644895473        550.5862169481051
18                       580.0989375900527        542.7090632683161        562.0945587779782        560.0805707276749        547.6967579276276        571.1702976805931        572.0735181828926        550.7892893208038        541.5366790063287        563.731761936304         568.4385607836355        560.4905983035188        555.1055720734674        530.9342321439456        540.232811692465         512.7681414663354        504.7270806274222        524.1598677543363        528.401416895056         522.7620002003189        519.10597805827          502.22292248024974       508.448803674254         573.6759939283077        573.1568530508657        548.6224872460713        588.2337431179844        557.0047949376461        559.17863887541          536.6785246617493        579.1406290484085
21                       604.6340259069598        566.9723689528927        587.3574748820614        585.6927475338475        570.4171134771128        594.9189465502308        596.1687751935326        573.7882838721456        564.2391774029609        587.4710661801869        592.5253429091763        584.5806222859678        578.8476981640251        553.6376644008838        563.2292560787679        537.166966707261         528.8436961643129        549.3095549498798        553.9103384848878        548.3440088670377        544.3266217714332        526.4119666506624        532.916495510211         597.7609164380192        596.8867678594088        571.3076154219497        611.2162969311893        582.4802874452229        584.2822067286601        560.7086734435966        603.4644011985695
24                       626.4062164762431        588.5164166124131        609.7602045611952        608.4009280990584        590.4719994747021        615.8285302753918        617.3725444970624        594.0698556029113        584.2809622529242        608.3740725895323        613.7231899063424        605.7818717958988        599.7536842289227        573.6808227129468        583.5092537790034        558.840903975691         550.2815282507169        571.6323582877031        576.5467636401407        571.0479487106649        566.7140628223428        547.91317122371          554.6513288806116        618.9591168261509        617.783754261919         591.3373065839836        631.4862321343766        605.1103604010909        606.5871229989552        582.094232966995         625.095252372324
27                       646.2983169898198        608.2132043208345        630.2027989263242        629.1116093705205        608.7910291250696        634.8784050150512        636.6775512740562        612.5800222022444        602.5901480905129        627.4192244555089        633.023971860345         625.0859867749984        618.8017666372772        591.9915543224135        602.0184114281991        578.6595528542512        569.8986383433091        592.0163450505198        597.2056056384491        591.7678762655703        587.1561283656132        567.5860510875672        574.5238716090348        638.2615041369595        636.8250207147973        609.6378886331407        649.987939029457         625.7770362578101        626.9687644824382        601.6799287613885        644.8899160040797
