% Model:              brazing.mph
% Version:            COMSOL 5.3.0.223
% Date:               Oct 24 2018, 01:40
% Table:              Table 3 - 
% Time (s)               Temperature (Cp_Al = 950.29, k_Al = 177.95, sigma_Al = 3.9615E7, rho_Al = 2425.2, Cp_inlet = 847.58, k_inlet = 161.56, sigma_inlet = 3.4914E7, rho_inlet = 2955.7, Cp_outlet = 887.75, k_outlet = 185.79, sigma_outlet = 3.4315E7, rho_outlet = 2541.3, Cp_outlet_sleeve = 972.2, k_outlet_sleeve = 157.26, sigma_outlet_sleeve = 3.5146E7, rho_outlet_sleeve = 2468.6, Cp_inlet_sleeve = 872.08, k_inlet_sleeve = 146, sigma_inlet_sleeve = 4.1366E7, rho_inlet_sleeve = 2470.6) (degC), Point: 55Temperature (Cp_Al = 950.29, k_Al = 177.95, sigma_Al = 3.9615E7, rho_Al = 2425.2, Cp_inlet = 847.58, k_inlet = 161.56, sigma_inlet = 3.4914E7, rho_inlet = 2955.7, Cp_outlet = 887.75, k_outlet = 185.79, sigma_outlet = 3.4315E7, rho_outlet = 2541.3, Cp_outlet_sleeve = 972.2, k_outlet_sleeve = 157.26, sigma_outlet_sleeve = 3.5146E7, rho_outlet_sleeve = 2468.6, Cp_inlet_sleeve = 872.08, k_inlet_sleeve = 146, sigma_inlet_sleeve = 4.1366E7, rho_inlet_sleeve = 2470.6) (degC), Point: 56Temperature (Cp_Al = 950.29, k_Al = 177.95, sigma_Al = 3.9615E7, rho_Al = 2425.2, Cp_inlet = 847.58, k_inlet = 161.56, sigma_inlet = 3.4914E7, rho_inlet = 2955.7, Cp_outlet = 887.75, k_outlet = 185.79, sigma_outlet = 3.4315E7, rho_outlet = 2541.3, Cp_outlet_sleeve = 972.2, k_outlet_sleeve = 157.26, sigma_outlet_sleeve = 3.5146E7, rho_outlet_sleeve = 2468.6, Cp_inlet_sleeve = 872.08, k_inlet_sleeve = 146, sigma_inlet_sleeve = 4.1366E7, rho_inlet_sleeve = 2470.6) (degC), Point: 60Temperature (Cp_Al = 950.29, k_Al = 177.95, sigma_Al = 3.9615E7, rho_Al = 2425.2, Cp_inlet = 847.58, k_inlet = 161.56, sigma_inlet = 3.4914E7, rho_inlet = 2955.7, Cp_outlet = 887.75, k_outlet = 185.79, sigma_outlet = 3.4315E7, rho_outlet = 2541.3, Cp_outlet_sleeve = 972.2, k_outlet_sleeve = 157.26, sigma_outlet_sleeve = 3.5146E7, rho_outlet_sleeve = 2468.6, Cp_inlet_sleeve = 872.08, k_inlet_sleeve = 146, sigma_inlet_sleeve = 4.1366E7, rho_inlet_sleeve = 2470.6) (degC), Point: 69Temperature (Cp_Al = 950.29, k_Al = 177.95, sigma_Al = 3.9615E7, rho_Al = 2425.2, Cp_inlet = 847.58, k_inlet = 161.56, sigma_inlet = 3.4914E7, rho_inlet = 2955.7, Cp_outlet = 887.75, k_outlet = 185.79, sigma_outlet = 3.4315E7, rho_outlet = 2541.3, Cp_outlet_sleeve = 972.2, k_outlet_sleeve = 157.26, sigma_outlet_sleeve = 3.5146E7, rho_outlet_sleeve = 2468.6, Cp_inlet_sleeve = 872.08, k_inlet_sleeve = 146, sigma_inlet_sleeve = 4.1366E7, rho_inlet_sleeve = 2470.6) (degC), Point: 90Temperature (Cp_Al = 950.29, k_Al = 177.95, sigma_Al = 3.9615E7, rho_Al = 2425.2, Cp_inlet = 847.58, k_inlet = 161.56, sigma_inlet = 3.4914E7, rho_inlet = 2955.7, Cp_outlet = 887.75, k_outlet = 185.79, sigma_outlet = 3.4315E7, rho_outlet = 2541.3, Cp_outlet_sleeve = 972.2, k_outlet_sleeve = 157.26, sigma_outlet_sleeve = 3.5146E7, rho_outlet_sleeve = 2468.6, Cp_inlet_sleeve = 872.08, k_inlet_sleeve = 146, sigma_inlet_sleeve = 4.1366E7, rho_inlet_sleeve = 2470.6) (degC), Point: 98Temperature (Cp_Al = 950.29, k_Al = 177.95, sigma_Al = 3.9615E7, rho_Al = 2425.2, Cp_inlet = 847.58, k_inlet = 161.56, sigma_inlet = 3.4914E7, rho_inlet = 2955.7, Cp_outlet = 887.75, k_outlet = 185.79, sigma_outlet = 3.4315E7, rho_outlet = 2541.3, Cp_outlet_sleeve = 972.2, k_outlet_sleeve = 157.26, sigma_outlet_sleeve = 3.5146E7, rho_outlet_sleeve = 2468.6, Cp_inlet_sleeve = 872.08, k_inlet_sleeve = 146, sigma_inlet_sleeve = 4.1366E7, rho_inlet_sleeve = 2470.6) (degC), Point: 102Temperature (Cp_Al = 950.29, k_Al = 177.95, sigma_Al = 3.9615E7, rho_Al = 2425.2, Cp_inlet = 847.58, k_inlet = 161.56, sigma_inlet = 3.4914E7, rho_inlet = 2955.7, Cp_outlet = 887.75, k_outlet = 185.79, sigma_outlet = 3.4315E7, rho_outlet = 2541.3, Cp_outlet_sleeve = 972.2, k_outlet_sleeve = 157.26, sigma_outlet_sleeve = 3.5146E7, rho_outlet_sleeve = 2468.6, Cp_inlet_sleeve = 872.08, k_inlet_sleeve = 146, sigma_inlet_sleeve = 4.1366E7, rho_inlet_sleeve = 2470.6) (degC), Point: 127Temperature (Cp_Al = 950.29, k_Al = 177.95, sigma_Al = 3.9615E7, rho_Al = 2425.2, Cp_inlet = 847.58, k_inlet = 161.56, sigma_inlet = 3.4914E7, rho_inlet = 2955.7, Cp_outlet = 887.75, k_outlet = 185.79, sigma_outlet = 3.4315E7, rho_outlet = 2541.3, Cp_outlet_sleeve = 972.2, k_outlet_sleeve = 157.26, sigma_outlet_sleeve = 3.5146E7, rho_outlet_sleeve = 2468.6, Cp_inlet_sleeve = 872.08, k_inlet_sleeve = 146, sigma_inlet_sleeve = 4.1366E7, rho_inlet_sleeve = 2470.6) (degC), Point: 128Temperature (Cp_Al = 950.29, k_Al = 177.95, sigma_Al = 3.9615E7, rho_Al = 2425.2, Cp_inlet = 847.58, k_inlet = 161.56, sigma_inlet = 3.4914E7, rho_inlet = 2955.7, Cp_outlet = 887.75, k_outlet = 185.79, sigma_outlet = 3.4315E7, rho_outlet = 2541.3, Cp_outlet_sleeve = 972.2, k_outlet_sleeve = 157.26, sigma_outlet_sleeve = 3.5146E7, rho_outlet_sleeve = 2468.6, Cp_inlet_sleeve = 872.08, k_inlet_sleeve = 146, sigma_inlet_sleeve = 4.1366E7, rho_inlet_sleeve = 2470.6) (degC), Point: 134Temperature (Cp_Al = 950.29, k_Al = 177.95, sigma_Al = 3.9615E7, rho_Al = 2425.2, Cp_inlet = 847.58, k_inlet = 161.56, sigma_inlet = 3.4914E7, rho_inlet = 2955.7, Cp_outlet = 887.75, k_outlet = 185.79, sigma_outlet = 3.4315E7, rho_outlet = 2541.3, Cp_outlet_sleeve = 972.2, k_outlet_sleeve = 157.26, sigma_outlet_sleeve = 3.5146E7, rho_outlet_sleeve = 2468.6, Cp_inlet_sleeve = 872.08, k_inlet_sleeve = 146, sigma_inlet_sleeve = 4.1366E7, rho_inlet_sleeve = 2470.6) (degC), Point: 138Temperature (Cp_Al = 950.29, k_Al = 177.95, sigma_Al = 3.9615E7, rho_Al = 2425.2, Cp_inlet = 847.58, k_inlet = 161.56, sigma_inlet = 3.4914E7, rho_inlet = 2955.7, Cp_outlet = 887.75, k_outlet = 185.79, sigma_outlet = 3.4315E7, rho_outlet = 2541.3, Cp_outlet_sleeve = 972.2, k_outlet_sleeve = 157.26, sigma_outlet_sleeve = 3.5146E7, rho_outlet_sleeve = 2468.6, Cp_inlet_sleeve = 872.08, k_inlet_sleeve = 146, sigma_inlet_sleeve = 4.1366E7, rho_inlet_sleeve = 2470.6) (degC), Point: 151Temperature (Cp_Al = 950.29, k_Al = 177.95, sigma_Al = 3.9615E7, rho_Al = 2425.2, Cp_inlet = 847.58, k_inlet = 161.56, sigma_inlet = 3.4914E7, rho_inlet = 2955.7, Cp_outlet = 887.75, k_outlet = 185.79, sigma_outlet = 3.4315E7, rho_outlet = 2541.3, Cp_outlet_sleeve = 972.2, k_outlet_sleeve = 157.26, sigma_outlet_sleeve = 3.5146E7, rho_outlet_sleeve = 2468.6, Cp_inlet_sleeve = 872.08, k_inlet_sleeve = 146, sigma_inlet_sleeve = 4.1366E7, rho_inlet_sleeve = 2470.6) (degC), Point: 154Temperature (Cp_Al = 950.29, k_Al = 177.95, sigma_Al = 3.9615E7, rho_Al = 2425.2, Cp_inlet = 847.58, k_inlet = 161.56, sigma_inlet = 3.4914E7, rho_inlet = 2955.7, Cp_outlet = 887.75, k_outlet = 185.79, sigma_outlet = 3.4315E7, rho_outlet = 2541.3, Cp_outlet_sleeve = 972.2, k_outlet_sleeve = 157.26, sigma_outlet_sleeve = 3.5146E7, rho_outlet_sleeve = 2468.6, Cp_inlet_sleeve = 872.08, k_inlet_sleeve = 146, sigma_inlet_sleeve = 4.1366E7, rho_inlet_sleeve = 2470.6) (degC), Point: 159Temperature (Cp_Al = 950.29, k_Al = 177.95, sigma_Al = 3.9615E7, rho_Al = 2425.2, Cp_inlet = 847.58, k_inlet = 161.56, sigma_inlet = 3.4914E7, rho_inlet = 2955.7, Cp_outlet = 887.75, k_outlet = 185.79, sigma_outlet = 3.4315E7, rho_outlet = 2541.3, Cp_outlet_sleeve = 972.2, k_outlet_sleeve = 157.26, sigma_outlet_sleeve = 3.5146E7, rho_outlet_sleeve = 2468.6, Cp_inlet_sleeve = 872.08, k_inlet_sleeve = 146, sigma_inlet_sleeve = 4.1366E7, rho_inlet_sleeve = 2470.6) (degC), Point: 163Temperature (Cp_Al = 950.29, k_Al = 177.95, sigma_Al = 3.9615E7, rho_Al = 2425.2, Cp_inlet = 847.58, k_inlet = 161.56, sigma_inlet = 3.4914E7, rho_inlet = 2955.7, Cp_outlet = 887.75, k_outlet = 185.79, sigma_outlet = 3.4315E7, rho_outlet = 2541.3, Cp_outlet_sleeve = 972.2, k_outlet_sleeve = 157.26, sigma_outlet_sleeve = 3.5146E7, rho_outlet_sleeve = 2468.6, Cp_inlet_sleeve = 872.08, k_inlet_sleeve = 146, sigma_inlet_sleeve = 4.1366E7, rho_inlet_sleeve = 2470.6) (degC), Point: 167Temperature (Cp_Al = 950.29, k_Al = 177.95, sigma_Al = 3.9615E7, rho_Al = 2425.2, Cp_inlet = 847.58, k_inlet = 161.56, sigma_inlet = 3.4914E7, rho_inlet = 2955.7, Cp_outlet = 887.75, k_outlet = 185.79, sigma_outlet = 3.4315E7, rho_outlet = 2541.3, Cp_outlet_sleeve = 972.2, k_outlet_sleeve = 157.26, sigma_outlet_sleeve = 3.5146E7, rho_outlet_sleeve = 2468.6, Cp_inlet_sleeve = 872.08, k_inlet_sleeve = 146, sigma_inlet_sleeve = 4.1366E7, rho_inlet_sleeve = 2470.6) (degC), Point: 168Temperature (Cp_Al = 950.29, k_Al = 177.95, sigma_Al = 3.9615E7, rho_Al = 2425.2, Cp_inlet = 847.58, k_inlet = 161.56, sigma_inlet = 3.4914E7, rho_inlet = 2955.7, Cp_outlet = 887.75, k_outlet = 185.79, sigma_outlet = 3.4315E7, rho_outlet = 2541.3, Cp_outlet_sleeve = 972.2, k_outlet_sleeve = 157.26, sigma_outlet_sleeve = 3.5146E7, rho_outlet_sleeve = 2468.6, Cp_inlet_sleeve = 872.08, k_inlet_sleeve = 146, sigma_inlet_sleeve = 4.1366E7, rho_inlet_sleeve = 2470.6) (degC), Point: 172Temperature (Cp_Al = 950.29, k_Al = 177.95, sigma_Al = 3.9615E7, rho_Al = 2425.2, Cp_inlet = 847.58, k_inlet = 161.56, sigma_inlet = 3.4914E7, rho_inlet = 2955.7, Cp_outlet = 887.75, k_outlet = 185.79, sigma_outlet = 3.4315E7, rho_outlet = 2541.3, Cp_outlet_sleeve = 972.2, k_outlet_sleeve = 157.26, sigma_outlet_sleeve = 3.5146E7, rho_outlet_sleeve = 2468.6, Cp_inlet_sleeve = 872.08, k_inlet_sleeve = 146, sigma_inlet_sleeve = 4.1366E7, rho_inlet_sleeve = 2470.6) (degC), Point: 181Temperature (Cp_Al = 950.29, k_Al = 177.95, sigma_Al = 3.9615E7, rho_Al = 2425.2, Cp_inlet = 847.58, k_inlet = 161.56, sigma_inlet = 3.4914E7, rho_inlet = 2955.7, Cp_outlet = 887.75, k_outlet = 185.79, sigma_outlet = 3.4315E7, rho_outlet = 2541.3, Cp_outlet_sleeve = 972.2, k_outlet_sleeve = 157.26, sigma_outlet_sleeve = 3.5146E7, rho_outlet_sleeve = 2468.6, Cp_inlet_sleeve = 872.08, k_inlet_sleeve = 146, sigma_inlet_sleeve = 4.1366E7, rho_inlet_sleeve = 2470.6) (degC), Point: 201Temperature (Cp_Al = 950.29, k_Al = 177.95, sigma_Al = 3.9615E7, rho_Al = 2425.2, Cp_inlet = 847.58, k_inlet = 161.56, sigma_inlet = 3.4914E7, rho_inlet = 2955.7, Cp_outlet = 887.75, k_outlet = 185.79, sigma_outlet = 3.4315E7, rho_outlet = 2541.3, Cp_outlet_sleeve = 972.2, k_outlet_sleeve = 157.26, sigma_outlet_sleeve = 3.5146E7, rho_outlet_sleeve = 2468.6, Cp_inlet_sleeve = 872.08, k_inlet_sleeve = 146, sigma_inlet_sleeve = 4.1366E7, rho_inlet_sleeve = 2470.6) (degC), Point: 210Temperature (Cp_Al = 950.29, k_Al = 177.95, sigma_Al = 3.9615E7, rho_Al = 2425.2, Cp_inlet = 847.58, k_inlet = 161.56, sigma_inlet = 3.4914E7, rho_inlet = 2955.7, Cp_outlet = 887.75, k_outlet = 185.79, sigma_outlet = 3.4315E7, rho_outlet = 2541.3, Cp_outlet_sleeve = 972.2, k_outlet_sleeve = 157.26, sigma_outlet_sleeve = 3.5146E7, rho_outlet_sleeve = 2468.6, Cp_inlet_sleeve = 872.08, k_inlet_sleeve = 146, sigma_inlet_sleeve = 4.1366E7, rho_inlet_sleeve = 2470.6) (degC), Point: 213Temperature (Cp_Al = 950.29, k_Al = 177.95, sigma_Al = 3.9615E7, rho_Al = 2425.2, Cp_inlet = 847.58, k_inlet = 161.56, sigma_inlet = 3.4914E7, rho_inlet = 2955.7, Cp_outlet = 887.75, k_outlet = 185.79, sigma_outlet = 3.4315E7, rho_outlet = 2541.3, Cp_outlet_sleeve = 972.2, k_outlet_sleeve = 157.26, sigma_outlet_sleeve = 3.5146E7, rho_outlet_sleeve = 2468.6, Cp_inlet_sleeve = 872.08, k_inlet_sleeve = 146, sigma_inlet_sleeve = 4.1366E7, rho_inlet_sleeve = 2470.6) (degC), Point: 215Temperature (Cp_Al = 950.29, k_Al = 177.95, sigma_Al = 3.9615E7, rho_Al = 2425.2, Cp_inlet = 847.58, k_inlet = 161.56, sigma_inlet = 3.4914E7, rho_inlet = 2955.7, Cp_outlet = 887.75, k_outlet = 185.79, sigma_outlet = 3.4315E7, rho_outlet = 2541.3, Cp_outlet_sleeve = 972.2, k_outlet_sleeve = 157.26, sigma_outlet_sleeve = 3.5146E7, rho_outlet_sleeve = 2468.6, Cp_inlet_sleeve = 872.08, k_inlet_sleeve = 146, sigma_inlet_sleeve = 4.1366E7, rho_inlet_sleeve = 2470.6) (degC), Point: 229Temperature (Cp_Al = 950.29, k_Al = 177.95, sigma_Al = 3.9615E7, rho_Al = 2425.2, Cp_inlet = 847.58, k_inlet = 161.56, sigma_inlet = 3.4914E7, rho_inlet = 2955.7, Cp_outlet = 887.75, k_outlet = 185.79, sigma_outlet = 3.4315E7, rho_outlet = 2541.3, Cp_outlet_sleeve = 972.2, k_outlet_sleeve = 157.26, sigma_outlet_sleeve = 3.5146E7, rho_outlet_sleeve = 2468.6, Cp_inlet_sleeve = 872.08, k_inlet_sleeve = 146, sigma_inlet_sleeve = 4.1366E7, rho_inlet_sleeve = 2470.6) (degC), Point: 232Temperature (Cp_Al = 950.29, k_Al = 177.95, sigma_Al = 3.9615E7, rho_Al = 2425.2, Cp_inlet = 847.58, k_inlet = 161.56, sigma_inlet = 3.4914E7, rho_inlet = 2955.7, Cp_outlet = 887.75, k_outlet = 185.79, sigma_outlet = 3.4315E7, rho_outlet = 2541.3, Cp_outlet_sleeve = 972.2, k_outlet_sleeve = 157.26, sigma_outlet_sleeve = 3.5146E7, rho_outlet_sleeve = 2468.6, Cp_inlet_sleeve = 872.08, k_inlet_sleeve = 146, sigma_inlet_sleeve = 4.1366E7, rho_inlet_sleeve = 2470.6) (degC), Point: 239Temperature (Cp_Al = 950.29, k_Al = 177.95, sigma_Al = 3.9615E7, rho_Al = 2425.2, Cp_inlet = 847.58, k_inlet = 161.56, sigma_inlet = 3.4914E7, rho_inlet = 2955.7, Cp_outlet = 887.75, k_outlet = 185.79, sigma_outlet = 3.4315E7, rho_outlet = 2541.3, Cp_outlet_sleeve = 972.2, k_outlet_sleeve = 157.26, sigma_outlet_sleeve = 3.5146E7, rho_outlet_sleeve = 2468.6, Cp_inlet_sleeve = 872.08, k_inlet_sleeve = 146, sigma_inlet_sleeve = 4.1366E7, rho_inlet_sleeve = 2470.6) (degC), Point: 252Temperature (Cp_Al = 950.29, k_Al = 177.95, sigma_Al = 3.9615E7, rho_Al = 2425.2, Cp_inlet = 847.58, k_inlet = 161.56, sigma_inlet = 3.4914E7, rho_inlet = 2955.7, Cp_outlet = 887.75, k_outlet = 185.79, sigma_outlet = 3.4315E7, rho_outlet = 2541.3, Cp_outlet_sleeve = 972.2, k_outlet_sleeve = 157.26, sigma_outlet_sleeve = 3.5146E7, rho_outlet_sleeve = 2468.6, Cp_inlet_sleeve = 872.08, k_inlet_sleeve = 146, sigma_inlet_sleeve = 4.1366E7, rho_inlet_sleeve = 2470.6) (degC), Point: 261Temperature (Cp_Al = 950.29, k_Al = 177.95, sigma_Al = 3.9615E7, rho_Al = 2425.2, Cp_inlet = 847.58, k_inlet = 161.56, sigma_inlet = 3.4914E7, rho_inlet = 2955.7, Cp_outlet = 887.75, k_outlet = 185.79, sigma_outlet = 3.4315E7, rho_outlet = 2541.3, Cp_outlet_sleeve = 972.2, k_outlet_sleeve = 157.26, sigma_outlet_sleeve = 3.5146E7, rho_outlet_sleeve = 2468.6, Cp_inlet_sleeve = 872.08, k_inlet_sleeve = 146, sigma_inlet_sleeve = 4.1366E7, rho_inlet_sleeve = 2470.6) (degC), Point: 270Temperature (Cp_Al = 950.29, k_Al = 177.95, sigma_Al = 3.9615E7, rho_Al = 2425.2, Cp_inlet = 847.58, k_inlet = 161.56, sigma_inlet = 3.4914E7, rho_inlet = 2955.7, Cp_outlet = 887.75, k_outlet = 185.79, sigma_outlet = 3.4315E7, rho_outlet = 2541.3, Cp_outlet_sleeve = 972.2, k_outlet_sleeve = 157.26, sigma_outlet_sleeve = 3.5146E7, rho_outlet_sleeve = 2468.6, Cp_inlet_sleeve = 872.08, k_inlet_sleeve = 146, sigma_inlet_sleeve = 4.1366E7, rho_inlet_sleeve = 2470.6) (degC), Point: 273Temperature (Cp_Al = 950.29, k_Al = 177.95, sigma_Al = 3.9615E7, rho_Al = 2425.2, Cp_inlet = 847.58, k_inlet = 161.56, sigma_inlet = 3.4914E7, rho_inlet = 2955.7, Cp_outlet = 887.75, k_outlet = 185.79, sigma_outlet = 3.4315E7, rho_outlet = 2541.3, Cp_outlet_sleeve = 972.2, k_outlet_sleeve = 157.26, sigma_outlet_sleeve = 3.5146E7, rho_outlet_sleeve = 2468.6, Cp_inlet_sleeve = 872.08, k_inlet_sleeve = 146, sigma_inlet_sleeve = 4.1366E7, rho_inlet_sleeve = 2470.6) (degC), Point: 275
0                        21.57234890983301        21.01146318715712        21.13296662366679        21.008595125033253       21.01511060019658        21.10807375220554        21.00819123761306        21.028967207025175       21.00156982035378        21.02456520866309        21.001155960037863       21.00060864007861        21.009492886456883       21.000115766292993       21.00859434760872        21.018796616828467       21.0000521093271         21.011659320268564       21.000718423101603       21.00028627594162        21.001779028839223       21.000159566042896       21.00023353864509        21.008168011607665       21.11855542803346        21.014513361405477       21.611346228324862       21.008506436998346       21.145981116034932       21.014348152326818       21.63683768508372
3                        297.56978389285086       262.51125022662563       271.3161820496824        266.33201874929455       262.2967639947709        273.161353195077         270.7874444672128        261.1938117714244        256.39656458323475       265.7891206962506        267.1912437272713        259.00446502544355       256.951414535851         245.69628098525197       250.5196976421364        231.72070544475804       227.25805678344994       236.27891053164672       237.75072396218587       231.77653697227146       230.74766449618375       223.9494587724758        226.6134880952282        272.83029090465664       275.6628231216587        263.9606075642163        299.59354947014845       267.8228962894394        273.1302408600867        261.95961467775646       302.01699284175754
6                        417.220331251567         380.72305822471833       392.80158847524876       388.3931273358297        382.6249234649164        398.80178777574145       397.5551499554505        383.50710704843834       376.58229696123135       391.3343914002936        393.86785619415093       385.672976699901         382.49366532913314       365.87546906394493       372.81299836772746       350.315030148529         344.35181652500296       356.80672553187674       358.8854016932288        352.8219316729942        351.23964066683857       341.1668561805707        345.2806050101018        399.41845951748064       401.0998979735326        383.99601680198805       421.76843602542533       387.8419857817772        392.5583329271857        377.9025912201787        419.4950245328524
9                        487.8870717197767        450.49083128526865       465.1149650725408        461.38046994492436       449.65571546152444       469.3824386391784        469.11440070604795       451.6745111512132        443.5333898073884        461.8669700616023        465.38162404004913       457.1814121819576        453.02243646345835       432.8206763130854        440.96267008534596       420.26857478196894       413.36587131691977       428.4828833123993        431.2629946064865        425.30584017576314       423.0501400945964        410.40386142121497       415.4276469770955        470.8910285728134        471.57223943182646       450.8602458354479        489.85421607537285       459.6954319030385        463.709794923926         446.33805442834364       488.8962808410622
12                       536.4672178180778        498.44826431204376       515.0251618328512        511.87653276957656       494.19042669865075       516.3406219439646        516.8055739163157        496.9302469609155        488.0181256909142        508.7962805098516        513.045727527679         504.84552095562185       499.95211263680346       477.30361330324865       486.2082001559527        468.4352831573649        460.88315691604544       478.03191808855706       481.4180868433698        475.55192966013226       472.70094353137983       458.0640384596653        463.7208166804654        518.5353475894079        518.4668468035769        495.2922324409949        535.0600819575006        509.58903364510604       512.9869948459624        493.5274614437692        536.7557509112929
15                       573.5392212789407        535.0540171058524        553.1884093903295        550.5383709466417        527.4586121521849        551.3507447979754        552.3688814727851        530.6949114595791        521.2529225464808        543.787713979185         548.5916529001884        540.3942101935862        534.9462623056821        510.5392747448052        519.9675669175896        505.2484915337001        497.2117125273285        515.9741816306637        519.8743482442409        514.1006035741937        510.738282367945         494.50541121136234       500.6373846089472        554.0721845431112        553.4376554264335        528.4937726368167        568.7931264341831        547.9254695747065        550.7958934934568        529.6705806996857        573.4000612397278
18                       603.4085947890286        564.5603876460808        583.9713029745412        581.7494993433869        553.7807082131969        578.9654504255063        580.4115683318839        557.3713894680241        547.5525664221014        571.39035562488          576.6232220472772        568.4296701882347        562.5525390128576        536.8409964518185        546.6414459743725        534.9526539697213        526.539922378617         546.6199748207796        550.9604122526812        545.2767309254689        541.4727332148996        523.9277630596497        530.4301332862025        582.1008287760523        581.0282866014664        554.772483434707         595.4494835721282        578.972809100872         581.3888550026415        558.8999406485643        603.0185086136634
21                       629.0886440029325        589.9434679214243        610.4319158599857        608.5811176904882        576.1851609247614        602.3852872263395        604.1771142603286        580.0469755151539        569.9412751844852        594.8020951366836        600.381368183996         592.1920100326762        585.9681460266281        559.2322762248247        569.3158552331618        560.5201473796657        551.8009154525363        572.9897517587309        577.7108420631623        572.1108633870747        567.9233234785876        549.269955969541         556.0751545335376        605.8592569452999        604.4329145111976        577.1475790091906        618.1117538067573        605.7235965860208        607.7459041621048        584.1090041037344        628.5444799544725
24                       652.1126766225369        612.7175829464393        634.1294400510611        632.6010390045309        596.2305973521885        623.2654168499568        625.3468933531703        600.3113705671972        589.9752835513476        615.6766229048128        621.5460667391081        613.3608616969498        606.8464884909971        579.2690117526108        589.5798444607644        583.4633612647867        574.4869516644924        596.6236755793973        601.6750167872929        596.1504723626854        591.6294522164677        572.0266920348486        579.0863507266448        627.0259577350982        625.3032486640441        597.1725286615774        638.3670568573137        629.7061694220544        631.386694111062         606.7690966905401        651.4700076272273
27                       673.3115173902884        633.7031337838802        655.9112693111854        654.6628880126594        614.7834153500213        642.5278557919762        644.8587418222928        619.0481554070603        608.5195186445732        634.9350644533788        641.0543140756095        632.8730448029794        626.1085390567096        597.8159222192857        608.3166097939448        604.6013727021979        595.4059744115586        618.3586187804996        623.6964597179477        618.2387159058476        613.428103283658         593.0073961432063        600.283864984305         646.5370658801587        644.5592355521713        615.7105576189726        657.0974015030008        651.7532016726409        653.1372855818735        627.6764111483006        672.6029270786278
