% Model:              brazing.mph
% Version:            COMSOL 5.3.0.223
% Date:               Oct 24 2018, 04:41
% Table:              Table 3 - 
% Time (s)               Temperature (Cp_Al = 1064.7, k_Al = 175.74, sigma_Al = 2.8305E7, rho_Al = 2277.2, Cp_inlet = 889.42, k_inlet = 131.19, sigma_inlet = 4.0472E7, rho_inlet = 3198.2, Cp_outlet = 812.93, k_outlet = 195.08, sigma_outlet = 2.5493E7, rho_outlet = 2783.4, Cp_outlet_sleeve = 1087.3, k_outlet_sleeve = 150.56, sigma_outlet_sleeve = 3.9278E7, rho_outlet_sleeve = 2268.6, Cp_inlet_sleeve = 985.89, k_inlet_sleeve = 165.6, sigma_inlet_sleeve = 3.4351E7, rho_inlet_sleeve = 2679.5) (degC), Point: 55Temperature (Cp_Al = 1064.7, k_Al = 175.74, sigma_Al = 2.8305E7, rho_Al = 2277.2, Cp_inlet = 889.42, k_inlet = 131.19, sigma_inlet = 4.0472E7, rho_inlet = 3198.2, Cp_outlet = 812.93, k_outlet = 195.08, sigma_outlet = 2.5493E7, rho_outlet = 2783.4, Cp_outlet_sleeve = 1087.3, k_outlet_sleeve = 150.56, sigma_outlet_sleeve = 3.9278E7, rho_outlet_sleeve = 2268.6, Cp_inlet_sleeve = 985.89, k_inlet_sleeve = 165.6, sigma_inlet_sleeve = 3.4351E7, rho_inlet_sleeve = 2679.5) (degC), Point: 56Temperature (Cp_Al = 1064.7, k_Al = 175.74, sigma_Al = 2.8305E7, rho_Al = 2277.2, Cp_inlet = 889.42, k_inlet = 131.19, sigma_inlet = 4.0472E7, rho_inlet = 3198.2, Cp_outlet = 812.93, k_outlet = 195.08, sigma_outlet = 2.5493E7, rho_outlet = 2783.4, Cp_outlet_sleeve = 1087.3, k_outlet_sleeve = 150.56, sigma_outlet_sleeve = 3.9278E7, rho_outlet_sleeve = 2268.6, Cp_inlet_sleeve = 985.89, k_inlet_sleeve = 165.6, sigma_inlet_sleeve = 3.4351E7, rho_inlet_sleeve = 2679.5) (degC), Point: 60Temperature (Cp_Al = 1064.7, k_Al = 175.74, sigma_Al = 2.8305E7, rho_Al = 2277.2, Cp_inlet = 889.42, k_inlet = 131.19, sigma_inlet = 4.0472E7, rho_inlet = 3198.2, Cp_outlet = 812.93, k_outlet = 195.08, sigma_outlet = 2.5493E7, rho_outlet = 2783.4, Cp_outlet_sleeve = 1087.3, k_outlet_sleeve = 150.56, sigma_outlet_sleeve = 3.9278E7, rho_outlet_sleeve = 2268.6, Cp_inlet_sleeve = 985.89, k_inlet_sleeve = 165.6, sigma_inlet_sleeve = 3.4351E7, rho_inlet_sleeve = 2679.5) (degC), Point: 69Temperature (Cp_Al = 1064.7, k_Al = 175.74, sigma_Al = 2.8305E7, rho_Al = 2277.2, Cp_inlet = 889.42, k_inlet = 131.19, sigma_inlet = 4.0472E7, rho_inlet = 3198.2, Cp_outlet = 812.93, k_outlet = 195.08, sigma_outlet = 2.5493E7, rho_outlet = 2783.4, Cp_outlet_sleeve = 1087.3, k_outlet_sleeve = 150.56, sigma_outlet_sleeve = 3.9278E7, rho_outlet_sleeve = 2268.6, Cp_inlet_sleeve = 985.89, k_inlet_sleeve = 165.6, sigma_inlet_sleeve = 3.4351E7, rho_inlet_sleeve = 2679.5) (degC), Point: 90Temperature (Cp_Al = 1064.7, k_Al = 175.74, sigma_Al = 2.8305E7, rho_Al = 2277.2, Cp_inlet = 889.42, k_inlet = 131.19, sigma_inlet = 4.0472E7, rho_inlet = 3198.2, Cp_outlet = 812.93, k_outlet = 195.08, sigma_outlet = 2.5493E7, rho_outlet = 2783.4, Cp_outlet_sleeve = 1087.3, k_outlet_sleeve = 150.56, sigma_outlet_sleeve = 3.9278E7, rho_outlet_sleeve = 2268.6, Cp_inlet_sleeve = 985.89, k_inlet_sleeve = 165.6, sigma_inlet_sleeve = 3.4351E7, rho_inlet_sleeve = 2679.5) (degC), Point: 98Temperature (Cp_Al = 1064.7, k_Al = 175.74, sigma_Al = 2.8305E7, rho_Al = 2277.2, Cp_inlet = 889.42, k_inlet = 131.19, sigma_inlet = 4.0472E7, rho_inlet = 3198.2, Cp_outlet = 812.93, k_outlet = 195.08, sigma_outlet = 2.5493E7, rho_outlet = 2783.4, Cp_outlet_sleeve = 1087.3, k_outlet_sleeve = 150.56, sigma_outlet_sleeve = 3.9278E7, rho_outlet_sleeve = 2268.6, Cp_inlet_sleeve = 985.89, k_inlet_sleeve = 165.6, sigma_inlet_sleeve = 3.4351E7, rho_inlet_sleeve = 2679.5) (degC), Point: 102Temperature (Cp_Al = 1064.7, k_Al = 175.74, sigma_Al = 2.8305E7, rho_Al = 2277.2, Cp_inlet = 889.42, k_inlet = 131.19, sigma_inlet = 4.0472E7, rho_inlet = 3198.2, Cp_outlet = 812.93, k_outlet = 195.08, sigma_outlet = 2.5493E7, rho_outlet = 2783.4, Cp_outlet_sleeve = 1087.3, k_outlet_sleeve = 150.56, sigma_outlet_sleeve = 3.9278E7, rho_outlet_sleeve = 2268.6, Cp_inlet_sleeve = 985.89, k_inlet_sleeve = 165.6, sigma_inlet_sleeve = 3.4351E7, rho_inlet_sleeve = 2679.5) (degC), Point: 127Temperature (Cp_Al = 1064.7, k_Al = 175.74, sigma_Al = 2.8305E7, rho_Al = 2277.2, Cp_inlet = 889.42, k_inlet = 131.19, sigma_inlet = 4.0472E7, rho_inlet = 3198.2, Cp_outlet = 812.93, k_outlet = 195.08, sigma_outlet = 2.5493E7, rho_outlet = 2783.4, Cp_outlet_sleeve = 1087.3, k_outlet_sleeve = 150.56, sigma_outlet_sleeve = 3.9278E7, rho_outlet_sleeve = 2268.6, Cp_inlet_sleeve = 985.89, k_inlet_sleeve = 165.6, sigma_inlet_sleeve = 3.4351E7, rho_inlet_sleeve = 2679.5) (degC), Point: 128Temperature (Cp_Al = 1064.7, k_Al = 175.74, sigma_Al = 2.8305E7, rho_Al = 2277.2, Cp_inlet = 889.42, k_inlet = 131.19, sigma_inlet = 4.0472E7, rho_inlet = 3198.2, Cp_outlet = 812.93, k_outlet = 195.08, sigma_outlet = 2.5493E7, rho_outlet = 2783.4, Cp_outlet_sleeve = 1087.3, k_outlet_sleeve = 150.56, sigma_outlet_sleeve = 3.9278E7, rho_outlet_sleeve = 2268.6, Cp_inlet_sleeve = 985.89, k_inlet_sleeve = 165.6, sigma_inlet_sleeve = 3.4351E7, rho_inlet_sleeve = 2679.5) (degC), Point: 134Temperature (Cp_Al = 1064.7, k_Al = 175.74, sigma_Al = 2.8305E7, rho_Al = 2277.2, Cp_inlet = 889.42, k_inlet = 131.19, sigma_inlet = 4.0472E7, rho_inlet = 3198.2, Cp_outlet = 812.93, k_outlet = 195.08, sigma_outlet = 2.5493E7, rho_outlet = 2783.4, Cp_outlet_sleeve = 1087.3, k_outlet_sleeve = 150.56, sigma_outlet_sleeve = 3.9278E7, rho_outlet_sleeve = 2268.6, Cp_inlet_sleeve = 985.89, k_inlet_sleeve = 165.6, sigma_inlet_sleeve = 3.4351E7, rho_inlet_sleeve = 2679.5) (degC), Point: 138Temperature (Cp_Al = 1064.7, k_Al = 175.74, sigma_Al = 2.8305E7, rho_Al = 2277.2, Cp_inlet = 889.42, k_inlet = 131.19, sigma_inlet = 4.0472E7, rho_inlet = 3198.2, Cp_outlet = 812.93, k_outlet = 195.08, sigma_outlet = 2.5493E7, rho_outlet = 2783.4, Cp_outlet_sleeve = 1087.3, k_outlet_sleeve = 150.56, sigma_outlet_sleeve = 3.9278E7, rho_outlet_sleeve = 2268.6, Cp_inlet_sleeve = 985.89, k_inlet_sleeve = 165.6, sigma_inlet_sleeve = 3.4351E7, rho_inlet_sleeve = 2679.5) (degC), Point: 151Temperature (Cp_Al = 1064.7, k_Al = 175.74, sigma_Al = 2.8305E7, rho_Al = 2277.2, Cp_inlet = 889.42, k_inlet = 131.19, sigma_inlet = 4.0472E7, rho_inlet = 3198.2, Cp_outlet = 812.93, k_outlet = 195.08, sigma_outlet = 2.5493E7, rho_outlet = 2783.4, Cp_outlet_sleeve = 1087.3, k_outlet_sleeve = 150.56, sigma_outlet_sleeve = 3.9278E7, rho_outlet_sleeve = 2268.6, Cp_inlet_sleeve = 985.89, k_inlet_sleeve = 165.6, sigma_inlet_sleeve = 3.4351E7, rho_inlet_sleeve = 2679.5) (degC), Point: 154Temperature (Cp_Al = 1064.7, k_Al = 175.74, sigma_Al = 2.8305E7, rho_Al = 2277.2, Cp_inlet = 889.42, k_inlet = 131.19, sigma_inlet = 4.0472E7, rho_inlet = 3198.2, Cp_outlet = 812.93, k_outlet = 195.08, sigma_outlet = 2.5493E7, rho_outlet = 2783.4, Cp_outlet_sleeve = 1087.3, k_outlet_sleeve = 150.56, sigma_outlet_sleeve = 3.9278E7, rho_outlet_sleeve = 2268.6, Cp_inlet_sleeve = 985.89, k_inlet_sleeve = 165.6, sigma_inlet_sleeve = 3.4351E7, rho_inlet_sleeve = 2679.5) (degC), Point: 159Temperature (Cp_Al = 1064.7, k_Al = 175.74, sigma_Al = 2.8305E7, rho_Al = 2277.2, Cp_inlet = 889.42, k_inlet = 131.19, sigma_inlet = 4.0472E7, rho_inlet = 3198.2, Cp_outlet = 812.93, k_outlet = 195.08, sigma_outlet = 2.5493E7, rho_outlet = 2783.4, Cp_outlet_sleeve = 1087.3, k_outlet_sleeve = 150.56, sigma_outlet_sleeve = 3.9278E7, rho_outlet_sleeve = 2268.6, Cp_inlet_sleeve = 985.89, k_inlet_sleeve = 165.6, sigma_inlet_sleeve = 3.4351E7, rho_inlet_sleeve = 2679.5) (degC), Point: 163Temperature (Cp_Al = 1064.7, k_Al = 175.74, sigma_Al = 2.8305E7, rho_Al = 2277.2, Cp_inlet = 889.42, k_inlet = 131.19, sigma_inlet = 4.0472E7, rho_inlet = 3198.2, Cp_outlet = 812.93, k_outlet = 195.08, sigma_outlet = 2.5493E7, rho_outlet = 2783.4, Cp_outlet_sleeve = 1087.3, k_outlet_sleeve = 150.56, sigma_outlet_sleeve = 3.9278E7, rho_outlet_sleeve = 2268.6, Cp_inlet_sleeve = 985.89, k_inlet_sleeve = 165.6, sigma_inlet_sleeve = 3.4351E7, rho_inlet_sleeve = 2679.5) (degC), Point: 167Temperature (Cp_Al = 1064.7, k_Al = 175.74, sigma_Al = 2.8305E7, rho_Al = 2277.2, Cp_inlet = 889.42, k_inlet = 131.19, sigma_inlet = 4.0472E7, rho_inlet = 3198.2, Cp_outlet = 812.93, k_outlet = 195.08, sigma_outlet = 2.5493E7, rho_outlet = 2783.4, Cp_outlet_sleeve = 1087.3, k_outlet_sleeve = 150.56, sigma_outlet_sleeve = 3.9278E7, rho_outlet_sleeve = 2268.6, Cp_inlet_sleeve = 985.89, k_inlet_sleeve = 165.6, sigma_inlet_sleeve = 3.4351E7, rho_inlet_sleeve = 2679.5) (degC), Point: 168Temperature (Cp_Al = 1064.7, k_Al = 175.74, sigma_Al = 2.8305E7, rho_Al = 2277.2, Cp_inlet = 889.42, k_inlet = 131.19, sigma_inlet = 4.0472E7, rho_inlet = 3198.2, Cp_outlet = 812.93, k_outlet = 195.08, sigma_outlet = 2.5493E7, rho_outlet = 2783.4, Cp_outlet_sleeve = 1087.3, k_outlet_sleeve = 150.56, sigma_outlet_sleeve = 3.9278E7, rho_outlet_sleeve = 2268.6, Cp_inlet_sleeve = 985.89, k_inlet_sleeve = 165.6, sigma_inlet_sleeve = 3.4351E7, rho_inlet_sleeve = 2679.5) (degC), Point: 172Temperature (Cp_Al = 1064.7, k_Al = 175.74, sigma_Al = 2.8305E7, rho_Al = 2277.2, Cp_inlet = 889.42, k_inlet = 131.19, sigma_inlet = 4.0472E7, rho_inlet = 3198.2, Cp_outlet = 812.93, k_outlet = 195.08, sigma_outlet = 2.5493E7, rho_outlet = 2783.4, Cp_outlet_sleeve = 1087.3, k_outlet_sleeve = 150.56, sigma_outlet_sleeve = 3.9278E7, rho_outlet_sleeve = 2268.6, Cp_inlet_sleeve = 985.89, k_inlet_sleeve = 165.6, sigma_inlet_sleeve = 3.4351E7, rho_inlet_sleeve = 2679.5) (degC), Point: 181Temperature (Cp_Al = 1064.7, k_Al = 175.74, sigma_Al = 2.8305E7, rho_Al = 2277.2, Cp_inlet = 889.42, k_inlet = 131.19, sigma_inlet = 4.0472E7, rho_inlet = 3198.2, Cp_outlet = 812.93, k_outlet = 195.08, sigma_outlet = 2.5493E7, rho_outlet = 2783.4, Cp_outlet_sleeve = 1087.3, k_outlet_sleeve = 150.56, sigma_outlet_sleeve = 3.9278E7, rho_outlet_sleeve = 2268.6, Cp_inlet_sleeve = 985.89, k_inlet_sleeve = 165.6, sigma_inlet_sleeve = 3.4351E7, rho_inlet_sleeve = 2679.5) (degC), Point: 201Temperature (Cp_Al = 1064.7, k_Al = 175.74, sigma_Al = 2.8305E7, rho_Al = 2277.2, Cp_inlet = 889.42, k_inlet = 131.19, sigma_inlet = 4.0472E7, rho_inlet = 3198.2, Cp_outlet = 812.93, k_outlet = 195.08, sigma_outlet = 2.5493E7, rho_outlet = 2783.4, Cp_outlet_sleeve = 1087.3, k_outlet_sleeve = 150.56, sigma_outlet_sleeve = 3.9278E7, rho_outlet_sleeve = 2268.6, Cp_inlet_sleeve = 985.89, k_inlet_sleeve = 165.6, sigma_inlet_sleeve = 3.4351E7, rho_inlet_sleeve = 2679.5) (degC), Point: 210Temperature (Cp_Al = 1064.7, k_Al = 175.74, sigma_Al = 2.8305E7, rho_Al = 2277.2, Cp_inlet = 889.42, k_inlet = 131.19, sigma_inlet = 4.0472E7, rho_inlet = 3198.2, Cp_outlet = 812.93, k_outlet = 195.08, sigma_outlet = 2.5493E7, rho_outlet = 2783.4, Cp_outlet_sleeve = 1087.3, k_outlet_sleeve = 150.56, sigma_outlet_sleeve = 3.9278E7, rho_outlet_sleeve = 2268.6, Cp_inlet_sleeve = 985.89, k_inlet_sleeve = 165.6, sigma_inlet_sleeve = 3.4351E7, rho_inlet_sleeve = 2679.5) (degC), Point: 213Temperature (Cp_Al = 1064.7, k_Al = 175.74, sigma_Al = 2.8305E7, rho_Al = 2277.2, Cp_inlet = 889.42, k_inlet = 131.19, sigma_inlet = 4.0472E7, rho_inlet = 3198.2, Cp_outlet = 812.93, k_outlet = 195.08, sigma_outlet = 2.5493E7, rho_outlet = 2783.4, Cp_outlet_sleeve = 1087.3, k_outlet_sleeve = 150.56, sigma_outlet_sleeve = 3.9278E7, rho_outlet_sleeve = 2268.6, Cp_inlet_sleeve = 985.89, k_inlet_sleeve = 165.6, sigma_inlet_sleeve = 3.4351E7, rho_inlet_sleeve = 2679.5) (degC), Point: 215Temperature (Cp_Al = 1064.7, k_Al = 175.74, sigma_Al = 2.8305E7, rho_Al = 2277.2, Cp_inlet = 889.42, k_inlet = 131.19, sigma_inlet = 4.0472E7, rho_inlet = 3198.2, Cp_outlet = 812.93, k_outlet = 195.08, sigma_outlet = 2.5493E7, rho_outlet = 2783.4, Cp_outlet_sleeve = 1087.3, k_outlet_sleeve = 150.56, sigma_outlet_sleeve = 3.9278E7, rho_outlet_sleeve = 2268.6, Cp_inlet_sleeve = 985.89, k_inlet_sleeve = 165.6, sigma_inlet_sleeve = 3.4351E7, rho_inlet_sleeve = 2679.5) (degC), Point: 229Temperature (Cp_Al = 1064.7, k_Al = 175.74, sigma_Al = 2.8305E7, rho_Al = 2277.2, Cp_inlet = 889.42, k_inlet = 131.19, sigma_inlet = 4.0472E7, rho_inlet = 3198.2, Cp_outlet = 812.93, k_outlet = 195.08, sigma_outlet = 2.5493E7, rho_outlet = 2783.4, Cp_outlet_sleeve = 1087.3, k_outlet_sleeve = 150.56, sigma_outlet_sleeve = 3.9278E7, rho_outlet_sleeve = 2268.6, Cp_inlet_sleeve = 985.89, k_inlet_sleeve = 165.6, sigma_inlet_sleeve = 3.4351E7, rho_inlet_sleeve = 2679.5) (degC), Point: 232Temperature (Cp_Al = 1064.7, k_Al = 175.74, sigma_Al = 2.8305E7, rho_Al = 2277.2, Cp_inlet = 889.42, k_inlet = 131.19, sigma_inlet = 4.0472E7, rho_inlet = 3198.2, Cp_outlet = 812.93, k_outlet = 195.08, sigma_outlet = 2.5493E7, rho_outlet = 2783.4, Cp_outlet_sleeve = 1087.3, k_outlet_sleeve = 150.56, sigma_outlet_sleeve = 3.9278E7, rho_outlet_sleeve = 2268.6, Cp_inlet_sleeve = 985.89, k_inlet_sleeve = 165.6, sigma_inlet_sleeve = 3.4351E7, rho_inlet_sleeve = 2679.5) (degC), Point: 239Temperature (Cp_Al = 1064.7, k_Al = 175.74, sigma_Al = 2.8305E7, rho_Al = 2277.2, Cp_inlet = 889.42, k_inlet = 131.19, sigma_inlet = 4.0472E7, rho_inlet = 3198.2, Cp_outlet = 812.93, k_outlet = 195.08, sigma_outlet = 2.5493E7, rho_outlet = 2783.4, Cp_outlet_sleeve = 1087.3, k_outlet_sleeve = 150.56, sigma_outlet_sleeve = 3.9278E7, rho_outlet_sleeve = 2268.6, Cp_inlet_sleeve = 985.89, k_inlet_sleeve = 165.6, sigma_inlet_sleeve = 3.4351E7, rho_inlet_sleeve = 2679.5) (degC), Point: 252Temperature (Cp_Al = 1064.7, k_Al = 175.74, sigma_Al = 2.8305E7, rho_Al = 2277.2, Cp_inlet = 889.42, k_inlet = 131.19, sigma_inlet = 4.0472E7, rho_inlet = 3198.2, Cp_outlet = 812.93, k_outlet = 195.08, sigma_outlet = 2.5493E7, rho_outlet = 2783.4, Cp_outlet_sleeve = 1087.3, k_outlet_sleeve = 150.56, sigma_outlet_sleeve = 3.9278E7, rho_outlet_sleeve = 2268.6, Cp_inlet_sleeve = 985.89, k_inlet_sleeve = 165.6, sigma_inlet_sleeve = 3.4351E7, rho_inlet_sleeve = 2679.5) (degC), Point: 261Temperature (Cp_Al = 1064.7, k_Al = 175.74, sigma_Al = 2.8305E7, rho_Al = 2277.2, Cp_inlet = 889.42, k_inlet = 131.19, sigma_inlet = 4.0472E7, rho_inlet = 3198.2, Cp_outlet = 812.93, k_outlet = 195.08, sigma_outlet = 2.5493E7, rho_outlet = 2783.4, Cp_outlet_sleeve = 1087.3, k_outlet_sleeve = 150.56, sigma_outlet_sleeve = 3.9278E7, rho_outlet_sleeve = 2268.6, Cp_inlet_sleeve = 985.89, k_inlet_sleeve = 165.6, sigma_inlet_sleeve = 3.4351E7, rho_inlet_sleeve = 2679.5) (degC), Point: 270Temperature (Cp_Al = 1064.7, k_Al = 175.74, sigma_Al = 2.8305E7, rho_Al = 2277.2, Cp_inlet = 889.42, k_inlet = 131.19, sigma_inlet = 4.0472E7, rho_inlet = 3198.2, Cp_outlet = 812.93, k_outlet = 195.08, sigma_outlet = 2.5493E7, rho_outlet = 2783.4, Cp_outlet_sleeve = 1087.3, k_outlet_sleeve = 150.56, sigma_outlet_sleeve = 3.9278E7, rho_outlet_sleeve = 2268.6, Cp_inlet_sleeve = 985.89, k_inlet_sleeve = 165.6, sigma_inlet_sleeve = 3.4351E7, rho_inlet_sleeve = 2679.5) (degC), Point: 273Temperature (Cp_Al = 1064.7, k_Al = 175.74, sigma_Al = 2.8305E7, rho_Al = 2277.2, Cp_inlet = 889.42, k_inlet = 131.19, sigma_inlet = 4.0472E7, rho_inlet = 3198.2, Cp_outlet = 812.93, k_outlet = 195.08, sigma_outlet = 2.5493E7, rho_outlet = 2783.4, Cp_outlet_sleeve = 1087.3, k_outlet_sleeve = 150.56, sigma_outlet_sleeve = 3.9278E7, rho_outlet_sleeve = 2268.6, Cp_inlet_sleeve = 985.89, k_inlet_sleeve = 165.6, sigma_inlet_sleeve = 3.4351E7, rho_inlet_sleeve = 2679.5) (degC), Point: 275
0                        21.5911448450056         21.0105848706163         21.13501787113279        21.008954671235813       21.012793471376483       21.108577855993644       21.007479952504696       21.021302248502025       21.001380229309575       21.024599843849217       21.001060828339064       21.00056935802087        21.009557941184937       21.000104127026873       21.006343753334704       21.019292335334796       21.000052976036216       21.011765089824905       21.00071156408069        21.000275706157936       21.001765971160978       21.00015576597002        21.000237994825966       21.007474078279472       21.119150543807393       21.01231725582204        21.46017065983966        21.00890522501112        21.14829837523382        21.0137949955041         21.657722063607878
3                        300.0163698302448        262.4579754081907        272.3257279903104        267.64002920015673       243.65864126951828       254.52685707869773       252.18112373271504       242.1629879993627        238.1972058118326        246.8919041210438        248.17528104506096       238.9265639565225        237.0512803753988        226.52156861621012       230.75097555177643       232.50216329009533       227.7826697744623        237.78173761682433       239.6115849778913        233.12639129190234       231.75178009109425       224.02588239333238       226.84972346043412       254.43838878610325       257.20522426552327       245.33437477639427       275.9304648342795        269.24937775691194       274.2753257324591        262.0936767239958        304.8595093866926
6                        424.413185236746         385.4062445622777        398.4003949816263        394.22932175403446       363.8179018765645        379.8720841068101        378.6742248726457        364.1915028817783        358.18781624965015       372.1179334134732        374.5521667478057        365.2951298585647        362.2738520554085        346.50190806976684       352.7600010009977        355.889939029278         349.66037346950145       362.9417897673568        365.315708244952         358.6630479369952        356.79425435084545       345.9337906803481        350.2197386963303        380.7039080459889        382.29764334438914       365.1439674390855        397.7943853478421        393.7953875303416        398.29021627378836       382.76356964069464       427.07716373523374
9                        499.14156418248683       459.20782225419725       474.7278664585882        471.20754084522014       433.06259797311805       452.68740638400016       452.5053365889738        434.5351215876284        427.33358939722893       444.8688350450203        448.3209468428132        439.06007141098974       435.0232729956434        415.6443713377354        423.09051617613295       429.8953417587212        422.6965850057885        438.6255641529268        441.67882387953523       435.1293118926643        432.60836903261304       419.18641280990175       424.41294326610443       454.4185383856002        454.973478242494         434.18607949440354       468.0423168091261        469.6255106716426        473.4383478879703        455.2011624865437        500.51368432676236
12                       550.3895793730377        509.8065178789608        527.3124127965051        524.3799905032794        478.78047431610946       500.8642018528561        501.45735134483755       480.94926611726305       472.99197551899056       493.0091957413513        497.2378818761447        487.9716870213507        483.1589941796268        461.2957380389048        469.4903470121951        480.72541644149385       472.84895292446083       490.8472465566116        494.5096967506879        488.04850073307455       484.92802303634755       469.4750417026929        475.3634077422289        503.3042813244913        503.06581565150464       479.77687526900445       514.393457586741         522.1913131092177        525.3822762664807        505.0112789418147        551.0249222721012
15                       590.095329570287         549.013668332814         568.1417893254543        565.7202517983012        513.1904678274108        537.0514333112656        538.2308954459022        515.8403001552739        507.3606755220618        529.1715817746646        533.987615013192         524.7213941366864        519.321611040426         495.6629967768066        504.37444025983734       520.1615522709399        511.76640900742996       531.4476020681625        535.6374198492172        529.269469380402         525.6238596483331        508.50493263966587       514.902473554081         540.0371622298453        539.1983493389802        514.1020339608577        549.2438138894281        563.1927073562322        565.8411628155709        543.7288169689886        590.2798692260467
18                       622.3384082302274        580.861067455657         601.3425259869027        599.3665911177135        540.3478208889277        565.5111869197626        567.1373255139429        543.3360080473236        534.4893796778942        557.6145318926791        562.8780267768328        553.6141376397883        547.7669109042054        522.7929401680402        531.8671353122179        552.2270538552156        543.4217326478196        564.5014444085572        569.1498968476474        562.8754832543422        558.7697598576412        540.2581211959215        547.0599071588524        568.9192212328782        567.6228658372531        541.2027199327041        576.7132127585262        596.6608083095832        598.835381194094         575.2736918661996        622.2497411691874
21                       650.0269847754837        608.223027354103         629.8574985777173        628.2711009486173        563.1742887373026        589.3279102059877        591.303312811632         566.4118692305873        557.2952999188909        581.4195074538495        587.0328715739441        577.7723726169596        571.5751939486994        545.6014893131425        554.9422120469271        579.7919640306663        570.64915675842          592.9167051859274        597.9652186465405        591.7796038074137        587.2709738900622        567.572620540978         574.7077219283958        593.0704910711893        591.416295431302         563.9902502995807        599.7716660886059        625.4733651669463        627.2339080773017        602.4415051643665        649.7667162904406
24                       674.7556161011463        632.6755643204385        655.3028633306112        654.0565847692286        583.3225104280001        610.2578792080503        612.514796276466         586.7523720375067        577.4283130441007        602.3410018213933        608.236352751791         598.9796917945913        592.5004057591109        565.7378462369426        575.2832245820683        604.430101222192         595.002795657823         618.2907175260376        623.6879659210099        617.5837013555315        612.7232132224615        592.0039334431211        599.420261496314         614.2731785871387        612.3305337295826        584.1110236172568        620.1004414766276        651.2133052702437        652.6128894605232        626.7645050460059        674.3834129527901
27                       697.3961522136025        655.080191700453         678.5649604099607        677.614602315798         601.741449388022         629.3150987448807        631.8056216081203        605.3254155511604        595.8356996140145        621.3919567633092        627.5212852492359        618.2685685925803        611.555171227858         584.1488615816291        593.8574830404536        627.0017763014229        617.3319083759136        641.4995083707339        647.1998013145906        641.1685046433928        636.002016603719         614.4020809836602        622.0582250779555        633.558961435079         631.376964699811         602.5101806525533        638.6654620224209        674.7510633457985        675.8371315304544        649.0796525720475        696.9484062096195
