% Model:              brazing.mph
% Version:            COMSOL 5.3.0.223
% Date:               Oct 24 2018, 01:20
% Table:              Table 3 - 
% Time (s)               Temperature (Cp_Al = 918.08, k_Al = 164.01, sigma_Al = 3.7161E7, rho_Al = 2606.5, Cp_inlet = 961.78, k_inlet = 156.48, sigma_inlet = 3.5949E7, rho_inlet = 2736, Cp_outlet = 833.49, k_outlet = 167.66, sigma_outlet = 3.5981E7, rho_outlet = 2734.4, Cp_outlet_sleeve = 930.8, k_outlet_sleeve = 161.13, sigma_outlet_sleeve = 3.4945E7, rho_outlet_sleeve = 2595.4, Cp_inlet_sleeve = 933.45, k_inlet_sleeve = 164.62, sigma_inlet_sleeve = 3.6943E7, rho_inlet_sleeve = 2548.9) (degC), Point: 55Temperature (Cp_Al = 918.08, k_Al = 164.01, sigma_Al = 3.7161E7, rho_Al = 2606.5, Cp_inlet = 961.78, k_inlet = 156.48, sigma_inlet = 3.5949E7, rho_inlet = 2736, Cp_outlet = 833.49, k_outlet = 167.66, sigma_outlet = 3.5981E7, rho_outlet = 2734.4, Cp_outlet_sleeve = 930.8, k_outlet_sleeve = 161.13, sigma_outlet_sleeve = 3.4945E7, rho_outlet_sleeve = 2595.4, Cp_inlet_sleeve = 933.45, k_inlet_sleeve = 164.62, sigma_inlet_sleeve = 3.6943E7, rho_inlet_sleeve = 2548.9) (degC), Point: 56Temperature (Cp_Al = 918.08, k_Al = 164.01, sigma_Al = 3.7161E7, rho_Al = 2606.5, Cp_inlet = 961.78, k_inlet = 156.48, sigma_inlet = 3.5949E7, rho_inlet = 2736, Cp_outlet = 833.49, k_outlet = 167.66, sigma_outlet = 3.5981E7, rho_outlet = 2734.4, Cp_outlet_sleeve = 930.8, k_outlet_sleeve = 161.13, sigma_outlet_sleeve = 3.4945E7, rho_outlet_sleeve = 2595.4, Cp_inlet_sleeve = 933.45, k_inlet_sleeve = 164.62, sigma_inlet_sleeve = 3.6943E7, rho_inlet_sleeve = 2548.9) (degC), Point: 60Temperature (Cp_Al = 918.08, k_Al = 164.01, sigma_Al = 3.7161E7, rho_Al = 2606.5, Cp_inlet = 961.78, k_inlet = 156.48, sigma_inlet = 3.5949E7, rho_inlet = 2736, Cp_outlet = 833.49, k_outlet = 167.66, sigma_outlet = 3.5981E7, rho_outlet = 2734.4, Cp_outlet_sleeve = 930.8, k_outlet_sleeve = 161.13, sigma_outlet_sleeve = 3.4945E7, rho_outlet_sleeve = 2595.4, Cp_inlet_sleeve = 933.45, k_inlet_sleeve = 164.62, sigma_inlet_sleeve = 3.6943E7, rho_inlet_sleeve = 2548.9) (degC), Point: 69Temperature (Cp_Al = 918.08, k_Al = 164.01, sigma_Al = 3.7161E7, rho_Al = 2606.5, Cp_inlet = 961.78, k_inlet = 156.48, sigma_inlet = 3.5949E7, rho_inlet = 2736, Cp_outlet = 833.49, k_outlet = 167.66, sigma_outlet = 3.5981E7, rho_outlet = 2734.4, Cp_outlet_sleeve = 930.8, k_outlet_sleeve = 161.13, sigma_outlet_sleeve = 3.4945E7, rho_outlet_sleeve = 2595.4, Cp_inlet_sleeve = 933.45, k_inlet_sleeve = 164.62, sigma_inlet_sleeve = 3.6943E7, rho_inlet_sleeve = 2548.9) (degC), Point: 90Temperature (Cp_Al = 918.08, k_Al = 164.01, sigma_Al = 3.7161E7, rho_Al = 2606.5, Cp_inlet = 961.78, k_inlet = 156.48, sigma_inlet = 3.5949E7, rho_inlet = 2736, Cp_outlet = 833.49, k_outlet = 167.66, sigma_outlet = 3.5981E7, rho_outlet = 2734.4, Cp_outlet_sleeve = 930.8, k_outlet_sleeve = 161.13, sigma_outlet_sleeve = 3.4945E7, rho_outlet_sleeve = 2595.4, Cp_inlet_sleeve = 933.45, k_inlet_sleeve = 164.62, sigma_inlet_sleeve = 3.6943E7, rho_inlet_sleeve = 2548.9) (degC), Point: 98Temperature (Cp_Al = 918.08, k_Al = 164.01, sigma_Al = 3.7161E7, rho_Al = 2606.5, Cp_inlet = 961.78, k_inlet = 156.48, sigma_inlet = 3.5949E7, rho_inlet = 2736, Cp_outlet = 833.49, k_outlet = 167.66, sigma_outlet = 3.5981E7, rho_outlet = 2734.4, Cp_outlet_sleeve = 930.8, k_outlet_sleeve = 161.13, sigma_outlet_sleeve = 3.4945E7, rho_outlet_sleeve = 2595.4, Cp_inlet_sleeve = 933.45, k_inlet_sleeve = 164.62, sigma_inlet_sleeve = 3.6943E7, rho_inlet_sleeve = 2548.9) (degC), Point: 102Temperature (Cp_Al = 918.08, k_Al = 164.01, sigma_Al = 3.7161E7, rho_Al = 2606.5, Cp_inlet = 961.78, k_inlet = 156.48, sigma_inlet = 3.5949E7, rho_inlet = 2736, Cp_outlet = 833.49, k_outlet = 167.66, sigma_outlet = 3.5981E7, rho_outlet = 2734.4, Cp_outlet_sleeve = 930.8, k_outlet_sleeve = 161.13, sigma_outlet_sleeve = 3.4945E7, rho_outlet_sleeve = 2595.4, Cp_inlet_sleeve = 933.45, k_inlet_sleeve = 164.62, sigma_inlet_sleeve = 3.6943E7, rho_inlet_sleeve = 2548.9) (degC), Point: 127Temperature (Cp_Al = 918.08, k_Al = 164.01, sigma_Al = 3.7161E7, rho_Al = 2606.5, Cp_inlet = 961.78, k_inlet = 156.48, sigma_inlet = 3.5949E7, rho_inlet = 2736, Cp_outlet = 833.49, k_outlet = 167.66, sigma_outlet = 3.5981E7, rho_outlet = 2734.4, Cp_outlet_sleeve = 930.8, k_outlet_sleeve = 161.13, sigma_outlet_sleeve = 3.4945E7, rho_outlet_sleeve = 2595.4, Cp_inlet_sleeve = 933.45, k_inlet_sleeve = 164.62, sigma_inlet_sleeve = 3.6943E7, rho_inlet_sleeve = 2548.9) (degC), Point: 128Temperature (Cp_Al = 918.08, k_Al = 164.01, sigma_Al = 3.7161E7, rho_Al = 2606.5, Cp_inlet = 961.78, k_inlet = 156.48, sigma_inlet = 3.5949E7, rho_inlet = 2736, Cp_outlet = 833.49, k_outlet = 167.66, sigma_outlet = 3.5981E7, rho_outlet = 2734.4, Cp_outlet_sleeve = 930.8, k_outlet_sleeve = 161.13, sigma_outlet_sleeve = 3.4945E7, rho_outlet_sleeve = 2595.4, Cp_inlet_sleeve = 933.45, k_inlet_sleeve = 164.62, sigma_inlet_sleeve = 3.6943E7, rho_inlet_sleeve = 2548.9) (degC), Point: 134Temperature (Cp_Al = 918.08, k_Al = 164.01, sigma_Al = 3.7161E7, rho_Al = 2606.5, Cp_inlet = 961.78, k_inlet = 156.48, sigma_inlet = 3.5949E7, rho_inlet = 2736, Cp_outlet = 833.49, k_outlet = 167.66, sigma_outlet = 3.5981E7, rho_outlet = 2734.4, Cp_outlet_sleeve = 930.8, k_outlet_sleeve = 161.13, sigma_outlet_sleeve = 3.4945E7, rho_outlet_sleeve = 2595.4, Cp_inlet_sleeve = 933.45, k_inlet_sleeve = 164.62, sigma_inlet_sleeve = 3.6943E7, rho_inlet_sleeve = 2548.9) (degC), Point: 138Temperature (Cp_Al = 918.08, k_Al = 164.01, sigma_Al = 3.7161E7, rho_Al = 2606.5, Cp_inlet = 961.78, k_inlet = 156.48, sigma_inlet = 3.5949E7, rho_inlet = 2736, Cp_outlet = 833.49, k_outlet = 167.66, sigma_outlet = 3.5981E7, rho_outlet = 2734.4, Cp_outlet_sleeve = 930.8, k_outlet_sleeve = 161.13, sigma_outlet_sleeve = 3.4945E7, rho_outlet_sleeve = 2595.4, Cp_inlet_sleeve = 933.45, k_inlet_sleeve = 164.62, sigma_inlet_sleeve = 3.6943E7, rho_inlet_sleeve = 2548.9) (degC), Point: 151Temperature (Cp_Al = 918.08, k_Al = 164.01, sigma_Al = 3.7161E7, rho_Al = 2606.5, Cp_inlet = 961.78, k_inlet = 156.48, sigma_inlet = 3.5949E7, rho_inlet = 2736, Cp_outlet = 833.49, k_outlet = 167.66, sigma_outlet = 3.5981E7, rho_outlet = 2734.4, Cp_outlet_sleeve = 930.8, k_outlet_sleeve = 161.13, sigma_outlet_sleeve = 3.4945E7, rho_outlet_sleeve = 2595.4, Cp_inlet_sleeve = 933.45, k_inlet_sleeve = 164.62, sigma_inlet_sleeve = 3.6943E7, rho_inlet_sleeve = 2548.9) (degC), Point: 154Temperature (Cp_Al = 918.08, k_Al = 164.01, sigma_Al = 3.7161E7, rho_Al = 2606.5, Cp_inlet = 961.78, k_inlet = 156.48, sigma_inlet = 3.5949E7, rho_inlet = 2736, Cp_outlet = 833.49, k_outlet = 167.66, sigma_outlet = 3.5981E7, rho_outlet = 2734.4, Cp_outlet_sleeve = 930.8, k_outlet_sleeve = 161.13, sigma_outlet_sleeve = 3.4945E7, rho_outlet_sleeve = 2595.4, Cp_inlet_sleeve = 933.45, k_inlet_sleeve = 164.62, sigma_inlet_sleeve = 3.6943E7, rho_inlet_sleeve = 2548.9) (degC), Point: 159Temperature (Cp_Al = 918.08, k_Al = 164.01, sigma_Al = 3.7161E7, rho_Al = 2606.5, Cp_inlet = 961.78, k_inlet = 156.48, sigma_inlet = 3.5949E7, rho_inlet = 2736, Cp_outlet = 833.49, k_outlet = 167.66, sigma_outlet = 3.5981E7, rho_outlet = 2734.4, Cp_outlet_sleeve = 930.8, k_outlet_sleeve = 161.13, sigma_outlet_sleeve = 3.4945E7, rho_outlet_sleeve = 2595.4, Cp_inlet_sleeve = 933.45, k_inlet_sleeve = 164.62, sigma_inlet_sleeve = 3.6943E7, rho_inlet_sleeve = 2548.9) (degC), Point: 163Temperature (Cp_Al = 918.08, k_Al = 164.01, sigma_Al = 3.7161E7, rho_Al = 2606.5, Cp_inlet = 961.78, k_inlet = 156.48, sigma_inlet = 3.5949E7, rho_inlet = 2736, Cp_outlet = 833.49, k_outlet = 167.66, sigma_outlet = 3.5981E7, rho_outlet = 2734.4, Cp_outlet_sleeve = 930.8, k_outlet_sleeve = 161.13, sigma_outlet_sleeve = 3.4945E7, rho_outlet_sleeve = 2595.4, Cp_inlet_sleeve = 933.45, k_inlet_sleeve = 164.62, sigma_inlet_sleeve = 3.6943E7, rho_inlet_sleeve = 2548.9) (degC), Point: 167Temperature (Cp_Al = 918.08, k_Al = 164.01, sigma_Al = 3.7161E7, rho_Al = 2606.5, Cp_inlet = 961.78, k_inlet = 156.48, sigma_inlet = 3.5949E7, rho_inlet = 2736, Cp_outlet = 833.49, k_outlet = 167.66, sigma_outlet = 3.5981E7, rho_outlet = 2734.4, Cp_outlet_sleeve = 930.8, k_outlet_sleeve = 161.13, sigma_outlet_sleeve = 3.4945E7, rho_outlet_sleeve = 2595.4, Cp_inlet_sleeve = 933.45, k_inlet_sleeve = 164.62, sigma_inlet_sleeve = 3.6943E7, rho_inlet_sleeve = 2548.9) (degC), Point: 168Temperature (Cp_Al = 918.08, k_Al = 164.01, sigma_Al = 3.7161E7, rho_Al = 2606.5, Cp_inlet = 961.78, k_inlet = 156.48, sigma_inlet = 3.5949E7, rho_inlet = 2736, Cp_outlet = 833.49, k_outlet = 167.66, sigma_outlet = 3.5981E7, rho_outlet = 2734.4, Cp_outlet_sleeve = 930.8, k_outlet_sleeve = 161.13, sigma_outlet_sleeve = 3.4945E7, rho_outlet_sleeve = 2595.4, Cp_inlet_sleeve = 933.45, k_inlet_sleeve = 164.62, sigma_inlet_sleeve = 3.6943E7, rho_inlet_sleeve = 2548.9) (degC), Point: 172Temperature (Cp_Al = 918.08, k_Al = 164.01, sigma_Al = 3.7161E7, rho_Al = 2606.5, Cp_inlet = 961.78, k_inlet = 156.48, sigma_inlet = 3.5949E7, rho_inlet = 2736, Cp_outlet = 833.49, k_outlet = 167.66, sigma_outlet = 3.5981E7, rho_outlet = 2734.4, Cp_outlet_sleeve = 930.8, k_outlet_sleeve = 161.13, sigma_outlet_sleeve = 3.4945E7, rho_outlet_sleeve = 2595.4, Cp_inlet_sleeve = 933.45, k_inlet_sleeve = 164.62, sigma_inlet_sleeve = 3.6943E7, rho_inlet_sleeve = 2548.9) (degC), Point: 181Temperature (Cp_Al = 918.08, k_Al = 164.01, sigma_Al = 3.7161E7, rho_Al = 2606.5, Cp_inlet = 961.78, k_inlet = 156.48, sigma_inlet = 3.5949E7, rho_inlet = 2736, Cp_outlet = 833.49, k_outlet = 167.66, sigma_outlet = 3.5981E7, rho_outlet = 2734.4, Cp_outlet_sleeve = 930.8, k_outlet_sleeve = 161.13, sigma_outlet_sleeve = 3.4945E7, rho_outlet_sleeve = 2595.4, Cp_inlet_sleeve = 933.45, k_inlet_sleeve = 164.62, sigma_inlet_sleeve = 3.6943E7, rho_inlet_sleeve = 2548.9) (degC), Point: 201Temperature (Cp_Al = 918.08, k_Al = 164.01, sigma_Al = 3.7161E7, rho_Al = 2606.5, Cp_inlet = 961.78, k_inlet = 156.48, sigma_inlet = 3.5949E7, rho_inlet = 2736, Cp_outlet = 833.49, k_outlet = 167.66, sigma_outlet = 3.5981E7, rho_outlet = 2734.4, Cp_outlet_sleeve = 930.8, k_outlet_sleeve = 161.13, sigma_outlet_sleeve = 3.4945E7, rho_outlet_sleeve = 2595.4, Cp_inlet_sleeve = 933.45, k_inlet_sleeve = 164.62, sigma_inlet_sleeve = 3.6943E7, rho_inlet_sleeve = 2548.9) (degC), Point: 210Temperature (Cp_Al = 918.08, k_Al = 164.01, sigma_Al = 3.7161E7, rho_Al = 2606.5, Cp_inlet = 961.78, k_inlet = 156.48, sigma_inlet = 3.5949E7, rho_inlet = 2736, Cp_outlet = 833.49, k_outlet = 167.66, sigma_outlet = 3.5981E7, rho_outlet = 2734.4, Cp_outlet_sleeve = 930.8, k_outlet_sleeve = 161.13, sigma_outlet_sleeve = 3.4945E7, rho_outlet_sleeve = 2595.4, Cp_inlet_sleeve = 933.45, k_inlet_sleeve = 164.62, sigma_inlet_sleeve = 3.6943E7, rho_inlet_sleeve = 2548.9) (degC), Point: 213Temperature (Cp_Al = 918.08, k_Al = 164.01, sigma_Al = 3.7161E7, rho_Al = 2606.5, Cp_inlet = 961.78, k_inlet = 156.48, sigma_inlet = 3.5949E7, rho_inlet = 2736, Cp_outlet = 833.49, k_outlet = 167.66, sigma_outlet = 3.5981E7, rho_outlet = 2734.4, Cp_outlet_sleeve = 930.8, k_outlet_sleeve = 161.13, sigma_outlet_sleeve = 3.4945E7, rho_outlet_sleeve = 2595.4, Cp_inlet_sleeve = 933.45, k_inlet_sleeve = 164.62, sigma_inlet_sleeve = 3.6943E7, rho_inlet_sleeve = 2548.9) (degC), Point: 215Temperature (Cp_Al = 918.08, k_Al = 164.01, sigma_Al = 3.7161E7, rho_Al = 2606.5, Cp_inlet = 961.78, k_inlet = 156.48, sigma_inlet = 3.5949E7, rho_inlet = 2736, Cp_outlet = 833.49, k_outlet = 167.66, sigma_outlet = 3.5981E7, rho_outlet = 2734.4, Cp_outlet_sleeve = 930.8, k_outlet_sleeve = 161.13, sigma_outlet_sleeve = 3.4945E7, rho_outlet_sleeve = 2595.4, Cp_inlet_sleeve = 933.45, k_inlet_sleeve = 164.62, sigma_inlet_sleeve = 3.6943E7, rho_inlet_sleeve = 2548.9) (degC), Point: 229Temperature (Cp_Al = 918.08, k_Al = 164.01, sigma_Al = 3.7161E7, rho_Al = 2606.5, Cp_inlet = 961.78, k_inlet = 156.48, sigma_inlet = 3.5949E7, rho_inlet = 2736, Cp_outlet = 833.49, k_outlet = 167.66, sigma_outlet = 3.5981E7, rho_outlet = 2734.4, Cp_outlet_sleeve = 930.8, k_outlet_sleeve = 161.13, sigma_outlet_sleeve = 3.4945E7, rho_outlet_sleeve = 2595.4, Cp_inlet_sleeve = 933.45, k_inlet_sleeve = 164.62, sigma_inlet_sleeve = 3.6943E7, rho_inlet_sleeve = 2548.9) (degC), Point: 232Temperature (Cp_Al = 918.08, k_Al = 164.01, sigma_Al = 3.7161E7, rho_Al = 2606.5, Cp_inlet = 961.78, k_inlet = 156.48, sigma_inlet = 3.5949E7, rho_inlet = 2736, Cp_outlet = 833.49, k_outlet = 167.66, sigma_outlet = 3.5981E7, rho_outlet = 2734.4, Cp_outlet_sleeve = 930.8, k_outlet_sleeve = 161.13, sigma_outlet_sleeve = 3.4945E7, rho_outlet_sleeve = 2595.4, Cp_inlet_sleeve = 933.45, k_inlet_sleeve = 164.62, sigma_inlet_sleeve = 3.6943E7, rho_inlet_sleeve = 2548.9) (degC), Point: 239Temperature (Cp_Al = 918.08, k_Al = 164.01, sigma_Al = 3.7161E7, rho_Al = 2606.5, Cp_inlet = 961.78, k_inlet = 156.48, sigma_inlet = 3.5949E7, rho_inlet = 2736, Cp_outlet = 833.49, k_outlet = 167.66, sigma_outlet = 3.5981E7, rho_outlet = 2734.4, Cp_outlet_sleeve = 930.8, k_outlet_sleeve = 161.13, sigma_outlet_sleeve = 3.4945E7, rho_outlet_sleeve = 2595.4, Cp_inlet_sleeve = 933.45, k_inlet_sleeve = 164.62, sigma_inlet_sleeve = 3.6943E7, rho_inlet_sleeve = 2548.9) (degC), Point: 252Temperature (Cp_Al = 918.08, k_Al = 164.01, sigma_Al = 3.7161E7, rho_Al = 2606.5, Cp_inlet = 961.78, k_inlet = 156.48, sigma_inlet = 3.5949E7, rho_inlet = 2736, Cp_outlet = 833.49, k_outlet = 167.66, sigma_outlet = 3.5981E7, rho_outlet = 2734.4, Cp_outlet_sleeve = 930.8, k_outlet_sleeve = 161.13, sigma_outlet_sleeve = 3.4945E7, rho_outlet_sleeve = 2595.4, Cp_inlet_sleeve = 933.45, k_inlet_sleeve = 164.62, sigma_inlet_sleeve = 3.6943E7, rho_inlet_sleeve = 2548.9) (degC), Point: 261Temperature (Cp_Al = 918.08, k_Al = 164.01, sigma_Al = 3.7161E7, rho_Al = 2606.5, Cp_inlet = 961.78, k_inlet = 156.48, sigma_inlet = 3.5949E7, rho_inlet = 2736, Cp_outlet = 833.49, k_outlet = 167.66, sigma_outlet = 3.5981E7, rho_outlet = 2734.4, Cp_outlet_sleeve = 930.8, k_outlet_sleeve = 161.13, sigma_outlet_sleeve = 3.4945E7, rho_outlet_sleeve = 2595.4, Cp_inlet_sleeve = 933.45, k_inlet_sleeve = 164.62, sigma_inlet_sleeve = 3.6943E7, rho_inlet_sleeve = 2548.9) (degC), Point: 270Temperature (Cp_Al = 918.08, k_Al = 164.01, sigma_Al = 3.7161E7, rho_Al = 2606.5, Cp_inlet = 961.78, k_inlet = 156.48, sigma_inlet = 3.5949E7, rho_inlet = 2736, Cp_outlet = 833.49, k_outlet = 167.66, sigma_outlet = 3.5981E7, rho_outlet = 2734.4, Cp_outlet_sleeve = 930.8, k_outlet_sleeve = 161.13, sigma_outlet_sleeve = 3.4945E7, rho_outlet_sleeve = 2595.4, Cp_inlet_sleeve = 933.45, k_inlet_sleeve = 164.62, sigma_inlet_sleeve = 3.6943E7, rho_inlet_sleeve = 2548.9) (degC), Point: 273Temperature (Cp_Al = 918.08, k_Al = 164.01, sigma_Al = 3.7161E7, rho_Al = 2606.5, Cp_inlet = 961.78, k_inlet = 156.48, sigma_inlet = 3.5949E7, rho_inlet = 2736, Cp_outlet = 833.49, k_outlet = 167.66, sigma_outlet = 3.5981E7, rho_outlet = 2734.4, Cp_outlet_sleeve = 930.8, k_outlet_sleeve = 161.13, sigma_outlet_sleeve = 3.4945E7, rho_outlet_sleeve = 2595.4, Cp_inlet_sleeve = 933.45, k_inlet_sleeve = 164.62, sigma_inlet_sleeve = 3.6943E7, rho_inlet_sleeve = 2548.9) (degC), Point: 275
0                        21.565845526247358       21.011422881793123       21.132471010491088       21.008484384665792       21.01391011244931        21.10891342073461        21.00795169691395        21.024679793832888       21.001479021830335       21.024733365310908       21.00112589263091        21.000594427148314       21.009599363414736       21.000110198823393       21.007392884334138       21.018530003959825       21.000051650256694       21.01160437125094        21.00071316413721        21.000286721657005       21.00177639017943        21.00015875528601        21.00023372883203        21.00793351125094        21.119493505208936       21.013378912559517       21.526248175964156       21.0083860775232         21.145425297384065       21.014264700228352       21.62958865119799
3                        296.74387671082206       262.4631312604846        271.85951840847827       267.1147029921161        252.32555940775637       263.37115477652674       261.0168116315325        251.18409109676838       246.93541958046058       256.0307121340302        257.4256663331814        249.11942911383005       247.08311734994072       236.2453826600604        240.63824784590042       230.62880901544338       226.16888994591773       235.33289321286895       236.87070034363535       230.70961803790834       229.67865977000525       222.83358302093342       225.5319204015255        263.03895227025305       265.84018975689196       253.8886780805601        285.23389813003735       268.7501351236342        273.78093262401524       261.8935819954031        301.10024585292774
6                        418.54778125502787       382.81063956274625       395.5829856851418        391.44212441850254       370.79159439509317       386.9176473244439        385.68275913966215       371.46192703125587       365.24830667585684       379.4731089027222        381.99172886606743       373.6720459845317        370.5163847943743        354.5413991184023        360.88999697970803       351.3276131488334        345.3454316223989        358.05381063829475       360.22762296648614       353.9326943040745        352.3205869052131        342.0931527788134        346.2621245161455        387.5028480710989        389.159118544825         372.0297993725527        405.35600567740164       390.8745876981038        395.28487264758337       379.79360643426594       420.56114822854283
9                        490.88441083218663       454.24917321558235       469.5898565892055        466.13374343102214       437.5311139048788        457.06545907267366       456.803260015183         439.2320809154394        431.8969653579138        449.56467914276357       453.0589924319411        444.733213137167         440.60342643834724       421.18317936680376       428.643435632678         422.85394556268943       415.92993262307425       431.33025220852437       434.21723538263916       428.04245853964414       425.74793593002323       412.9225142507123        418.0029624481474        458.52073724029026       459.18141557564024       438.5793039617912        473.0348319604159        464.25842260329443       467.9566632359886        449.71619131941054       491.4550459459939
12                       540.1005760068864        502.85391824863416       520.1319048630361        517.2629893309803        481.64783954299617       503.5026045384045        503.9695348831774        483.995680551086         475.9566935344403        495.96802811817133       500.19354738564857       491.8662256848464        487.0055635072814        465.2394355840852        473.3964306865446        471.5961464314024        464.03148450420167       481.45407415890065       484.9494771193639        478.8617510702177        475.97186263682113       461.1704672716422        466.8740562727496        505.6295630248835        505.54345854153416       482.5775268113581        517.7415108921144        514.6670791323272        517.7477843836332        497.4275022779972        539.8294594337295
15                       577.767475833818         540.0643270955895        558.87473733331          556.4993930168176        514.98714724504          538.5234897652109        539.5422489711127        517.7849846773752        509.2570088697613        530.9663133939949        535.7451806759091        527.4195233362663        522.005478361666         498.5395151073569        507.18021711819756       508.95875405454774       500.9171927780329        519.9332062084088        523.938410902782         517.9377705916083        514.5425001560744        498.16953949042943       504.3396969808979        541.1675116143648        540.51603375304          515.8378498288349        551.4937427868202        553.4872678116831        556.0455411715332        534.0785874866165        576.9753863273573
18                       607.9541592886771        569.8985945029532        589.953869561912         587.999125121961         541.421300032788         566.206607305278         567.6515477767583        544.5407375528273        535.6644219501051        558.6343947737839        563.8405519252633        555.5179443911522        549.6763729483145        524.9481982669697        533.9332154577221        538.9473473325037        530.5388806114279        550.8445477962943        555.283062970988         549.367798477014         545.5389437803836        527.8844688336924        534.4154398862252        569.2564527162278        568.1682510746812        542.2192217544626        578.2252475712033        584.7572499818738        586.8685377355488        563.5645065382154        606.8425186449308
21                       633.6718804428433        595.3303317985373        616.4311215927205        614.8401730950834        563.8094627462752        589.5706031567122        591.3579016093255        567.1733481320273        558.033592827636         581.9880493863421        587.5373866919659        579.2183219861688        573.0332571526952        547.3193196212081        556.5645597498548        564.5290354506916        555.8238849806564        577.2092160466377        582.0217451517228        576.1868855326824        571.9817295881304        553.2493538166003        560.0730971680745        592.9508965666095        591.5118821077363        564.5709093726301        600.841447413691         611.4709281983248        613.1951209151692        588.7704870509417        632.3566172315999
24                       656.5593592752483        617.9778042360616        639.9751701627381        638.701591687108         583.7129162405955        610.2711045792458        612.34362729947          587.2727115128455        577.9231474719104        602.6812440721867        608.5164224012753        600.2010089693597        593.7297715142173        567.2111267475716        576.6634946134785        587.3187064222298        578.3653945049201        600.6740690497636        605.8123164283338        600.0509794636782        595.5171293933865        575.8604605648492        582.9295848564325        613.9298879110243        612.1986732861506        584.4484649138749        620.9294037074286        635.2622517756957        636.6489264869455        611.2662534080632        655.1096943291369
27                       677.5159879154227        638.7292867559153        661.5032793311425        660.5073144119281        602.0079248295874        629.2393819074638        631.5562777445482        605.731077364682         596.2077265519009        621.6442475500447        627.7242658255019        619.4124174459149        612.6960156117342        585.498042784473         595.121895079132         608.2022894144804        599.0374590069479        622.1441807237167        627.5669407134804        621.8716695792526        617.0502558417202        596.5935951218617        603.8720840820545        633.1390589484341        631.1575804227359        602.7246623231624        639.379656958538         657.0305923266009        658.1224123555585        631.91252705887          675.9748392651428
