% Model:              brazing.mph
% Version:            COMSOL 5.3.0.223
% Date:               Oct 24 2018, 05:34
% Table:              Table 3 - 
% Time (s)               Temperature (Cp_Al = 903.45, k_Al = 145.79, sigma_Al = 4.0962E7, rho_Al = 2542.6, Cp_inlet = 855.8, k_inlet = 154.4, sigma_inlet = 3.3934E7, rho_inlet = 2558.9, Cp_outlet = 862.6, k_outlet = 155.88, sigma_outlet = 3.7848E7, rho_outlet = 2499.7, Cp_outlet_sleeve = 811.89, k_outlet_sleeve = 158.56, sigma_outlet_sleeve = 3.5732E7, rho_outlet_sleeve = 2551.7, Cp_inlet_sleeve = 920.07, k_inlet_sleeve = 150.56, sigma_inlet_sleeve = 4.2995E7, rho_inlet_sleeve = 2696.4) (degC), Point: 55Temperature (Cp_Al = 903.45, k_Al = 145.79, sigma_Al = 4.0962E7, rho_Al = 2542.6, Cp_inlet = 855.8, k_inlet = 154.4, sigma_inlet = 3.3934E7, rho_inlet = 2558.9, Cp_outlet = 862.6, k_outlet = 155.88, sigma_outlet = 3.7848E7, rho_outlet = 2499.7, Cp_outlet_sleeve = 811.89, k_outlet_sleeve = 158.56, sigma_outlet_sleeve = 3.5732E7, rho_outlet_sleeve = 2551.7, Cp_inlet_sleeve = 920.07, k_inlet_sleeve = 150.56, sigma_inlet_sleeve = 4.2995E7, rho_inlet_sleeve = 2696.4) (degC), Point: 56Temperature (Cp_Al = 903.45, k_Al = 145.79, sigma_Al = 4.0962E7, rho_Al = 2542.6, Cp_inlet = 855.8, k_inlet = 154.4, sigma_inlet = 3.3934E7, rho_inlet = 2558.9, Cp_outlet = 862.6, k_outlet = 155.88, sigma_outlet = 3.7848E7, rho_outlet = 2499.7, Cp_outlet_sleeve = 811.89, k_outlet_sleeve = 158.56, sigma_outlet_sleeve = 3.5732E7, rho_outlet_sleeve = 2551.7, Cp_inlet_sleeve = 920.07, k_inlet_sleeve = 150.56, sigma_inlet_sleeve = 4.2995E7, rho_inlet_sleeve = 2696.4) (degC), Point: 60Temperature (Cp_Al = 903.45, k_Al = 145.79, sigma_Al = 4.0962E7, rho_Al = 2542.6, Cp_inlet = 855.8, k_inlet = 154.4, sigma_inlet = 3.3934E7, rho_inlet = 2558.9, Cp_outlet = 862.6, k_outlet = 155.88, sigma_outlet = 3.7848E7, rho_outlet = 2499.7, Cp_outlet_sleeve = 811.89, k_outlet_sleeve = 158.56, sigma_outlet_sleeve = 3.5732E7, rho_outlet_sleeve = 2551.7, Cp_inlet_sleeve = 920.07, k_inlet_sleeve = 150.56, sigma_inlet_sleeve = 4.2995E7, rho_inlet_sleeve = 2696.4) (degC), Point: 69Temperature (Cp_Al = 903.45, k_Al = 145.79, sigma_Al = 4.0962E7, rho_Al = 2542.6, Cp_inlet = 855.8, k_inlet = 154.4, sigma_inlet = 3.3934E7, rho_inlet = 2558.9, Cp_outlet = 862.6, k_outlet = 155.88, sigma_outlet = 3.7848E7, rho_outlet = 2499.7, Cp_outlet_sleeve = 811.89, k_outlet_sleeve = 158.56, sigma_outlet_sleeve = 3.5732E7, rho_outlet_sleeve = 2551.7, Cp_inlet_sleeve = 920.07, k_inlet_sleeve = 150.56, sigma_inlet_sleeve = 4.2995E7, rho_inlet_sleeve = 2696.4) (degC), Point: 90Temperature (Cp_Al = 903.45, k_Al = 145.79, sigma_Al = 4.0962E7, rho_Al = 2542.6, Cp_inlet = 855.8, k_inlet = 154.4, sigma_inlet = 3.3934E7, rho_inlet = 2558.9, Cp_outlet = 862.6, k_outlet = 155.88, sigma_outlet = 3.7848E7, rho_outlet = 2499.7, Cp_outlet_sleeve = 811.89, k_outlet_sleeve = 158.56, sigma_outlet_sleeve = 3.5732E7, rho_outlet_sleeve = 2551.7, Cp_inlet_sleeve = 920.07, k_inlet_sleeve = 150.56, sigma_inlet_sleeve = 4.2995E7, rho_inlet_sleeve = 2696.4) (degC), Point: 98Temperature (Cp_Al = 903.45, k_Al = 145.79, sigma_Al = 4.0962E7, rho_Al = 2542.6, Cp_inlet = 855.8, k_inlet = 154.4, sigma_inlet = 3.3934E7, rho_inlet = 2558.9, Cp_outlet = 862.6, k_outlet = 155.88, sigma_outlet = 3.7848E7, rho_outlet = 2499.7, Cp_outlet_sleeve = 811.89, k_outlet_sleeve = 158.56, sigma_outlet_sleeve = 3.5732E7, rho_outlet_sleeve = 2551.7, Cp_inlet_sleeve = 920.07, k_inlet_sleeve = 150.56, sigma_inlet_sleeve = 4.2995E7, rho_inlet_sleeve = 2696.4) (degC), Point: 102Temperature (Cp_Al = 903.45, k_Al = 145.79, sigma_Al = 4.0962E7, rho_Al = 2542.6, Cp_inlet = 855.8, k_inlet = 154.4, sigma_inlet = 3.3934E7, rho_inlet = 2558.9, Cp_outlet = 862.6, k_outlet = 155.88, sigma_outlet = 3.7848E7, rho_outlet = 2499.7, Cp_outlet_sleeve = 811.89, k_outlet_sleeve = 158.56, sigma_outlet_sleeve = 3.5732E7, rho_outlet_sleeve = 2551.7, Cp_inlet_sleeve = 920.07, k_inlet_sleeve = 150.56, sigma_inlet_sleeve = 4.2995E7, rho_inlet_sleeve = 2696.4) (degC), Point: 127Temperature (Cp_Al = 903.45, k_Al = 145.79, sigma_Al = 4.0962E7, rho_Al = 2542.6, Cp_inlet = 855.8, k_inlet = 154.4, sigma_inlet = 3.3934E7, rho_inlet = 2558.9, Cp_outlet = 862.6, k_outlet = 155.88, sigma_outlet = 3.7848E7, rho_outlet = 2499.7, Cp_outlet_sleeve = 811.89, k_outlet_sleeve = 158.56, sigma_outlet_sleeve = 3.5732E7, rho_outlet_sleeve = 2551.7, Cp_inlet_sleeve = 920.07, k_inlet_sleeve = 150.56, sigma_inlet_sleeve = 4.2995E7, rho_inlet_sleeve = 2696.4) (degC), Point: 128Temperature (Cp_Al = 903.45, k_Al = 145.79, sigma_Al = 4.0962E7, rho_Al = 2542.6, Cp_inlet = 855.8, k_inlet = 154.4, sigma_inlet = 3.3934E7, rho_inlet = 2558.9, Cp_outlet = 862.6, k_outlet = 155.88, sigma_outlet = 3.7848E7, rho_outlet = 2499.7, Cp_outlet_sleeve = 811.89, k_outlet_sleeve = 158.56, sigma_outlet_sleeve = 3.5732E7, rho_outlet_sleeve = 2551.7, Cp_inlet_sleeve = 920.07, k_inlet_sleeve = 150.56, sigma_inlet_sleeve = 4.2995E7, rho_inlet_sleeve = 2696.4) (degC), Point: 134Temperature (Cp_Al = 903.45, k_Al = 145.79, sigma_Al = 4.0962E7, rho_Al = 2542.6, Cp_inlet = 855.8, k_inlet = 154.4, sigma_inlet = 3.3934E7, rho_inlet = 2558.9, Cp_outlet = 862.6, k_outlet = 155.88, sigma_outlet = 3.7848E7, rho_outlet = 2499.7, Cp_outlet_sleeve = 811.89, k_outlet_sleeve = 158.56, sigma_outlet_sleeve = 3.5732E7, rho_outlet_sleeve = 2551.7, Cp_inlet_sleeve = 920.07, k_inlet_sleeve = 150.56, sigma_inlet_sleeve = 4.2995E7, rho_inlet_sleeve = 2696.4) (degC), Point: 138Temperature (Cp_Al = 903.45, k_Al = 145.79, sigma_Al = 4.0962E7, rho_Al = 2542.6, Cp_inlet = 855.8, k_inlet = 154.4, sigma_inlet = 3.3934E7, rho_inlet = 2558.9, Cp_outlet = 862.6, k_outlet = 155.88, sigma_outlet = 3.7848E7, rho_outlet = 2499.7, Cp_outlet_sleeve = 811.89, k_outlet_sleeve = 158.56, sigma_outlet_sleeve = 3.5732E7, rho_outlet_sleeve = 2551.7, Cp_inlet_sleeve = 920.07, k_inlet_sleeve = 150.56, sigma_inlet_sleeve = 4.2995E7, rho_inlet_sleeve = 2696.4) (degC), Point: 151Temperature (Cp_Al = 903.45, k_Al = 145.79, sigma_Al = 4.0962E7, rho_Al = 2542.6, Cp_inlet = 855.8, k_inlet = 154.4, sigma_inlet = 3.3934E7, rho_inlet = 2558.9, Cp_outlet = 862.6, k_outlet = 155.88, sigma_outlet = 3.7848E7, rho_outlet = 2499.7, Cp_outlet_sleeve = 811.89, k_outlet_sleeve = 158.56, sigma_outlet_sleeve = 3.5732E7, rho_outlet_sleeve = 2551.7, Cp_inlet_sleeve = 920.07, k_inlet_sleeve = 150.56, sigma_inlet_sleeve = 4.2995E7, rho_inlet_sleeve = 2696.4) (degC), Point: 154Temperature (Cp_Al = 903.45, k_Al = 145.79, sigma_Al = 4.0962E7, rho_Al = 2542.6, Cp_inlet = 855.8, k_inlet = 154.4, sigma_inlet = 3.3934E7, rho_inlet = 2558.9, Cp_outlet = 862.6, k_outlet = 155.88, sigma_outlet = 3.7848E7, rho_outlet = 2499.7, Cp_outlet_sleeve = 811.89, k_outlet_sleeve = 158.56, sigma_outlet_sleeve = 3.5732E7, rho_outlet_sleeve = 2551.7, Cp_inlet_sleeve = 920.07, k_inlet_sleeve = 150.56, sigma_inlet_sleeve = 4.2995E7, rho_inlet_sleeve = 2696.4) (degC), Point: 159Temperature (Cp_Al = 903.45, k_Al = 145.79, sigma_Al = 4.0962E7, rho_Al = 2542.6, Cp_inlet = 855.8, k_inlet = 154.4, sigma_inlet = 3.3934E7, rho_inlet = 2558.9, Cp_outlet = 862.6, k_outlet = 155.88, sigma_outlet = 3.7848E7, rho_outlet = 2499.7, Cp_outlet_sleeve = 811.89, k_outlet_sleeve = 158.56, sigma_outlet_sleeve = 3.5732E7, rho_outlet_sleeve = 2551.7, Cp_inlet_sleeve = 920.07, k_inlet_sleeve = 150.56, sigma_inlet_sleeve = 4.2995E7, rho_inlet_sleeve = 2696.4) (degC), Point: 163Temperature (Cp_Al = 903.45, k_Al = 145.79, sigma_Al = 4.0962E7, rho_Al = 2542.6, Cp_inlet = 855.8, k_inlet = 154.4, sigma_inlet = 3.3934E7, rho_inlet = 2558.9, Cp_outlet = 862.6, k_outlet = 155.88, sigma_outlet = 3.7848E7, rho_outlet = 2499.7, Cp_outlet_sleeve = 811.89, k_outlet_sleeve = 158.56, sigma_outlet_sleeve = 3.5732E7, rho_outlet_sleeve = 2551.7, Cp_inlet_sleeve = 920.07, k_inlet_sleeve = 150.56, sigma_inlet_sleeve = 4.2995E7, rho_inlet_sleeve = 2696.4) (degC), Point: 167Temperature (Cp_Al = 903.45, k_Al = 145.79, sigma_Al = 4.0962E7, rho_Al = 2542.6, Cp_inlet = 855.8, k_inlet = 154.4, sigma_inlet = 3.3934E7, rho_inlet = 2558.9, Cp_outlet = 862.6, k_outlet = 155.88, sigma_outlet = 3.7848E7, rho_outlet = 2499.7, Cp_outlet_sleeve = 811.89, k_outlet_sleeve = 158.56, sigma_outlet_sleeve = 3.5732E7, rho_outlet_sleeve = 2551.7, Cp_inlet_sleeve = 920.07, k_inlet_sleeve = 150.56, sigma_inlet_sleeve = 4.2995E7, rho_inlet_sleeve = 2696.4) (degC), Point: 168Temperature (Cp_Al = 903.45, k_Al = 145.79, sigma_Al = 4.0962E7, rho_Al = 2542.6, Cp_inlet = 855.8, k_inlet = 154.4, sigma_inlet = 3.3934E7, rho_inlet = 2558.9, Cp_outlet = 862.6, k_outlet = 155.88, sigma_outlet = 3.7848E7, rho_outlet = 2499.7, Cp_outlet_sleeve = 811.89, k_outlet_sleeve = 158.56, sigma_outlet_sleeve = 3.5732E7, rho_outlet_sleeve = 2551.7, Cp_inlet_sleeve = 920.07, k_inlet_sleeve = 150.56, sigma_inlet_sleeve = 4.2995E7, rho_inlet_sleeve = 2696.4) (degC), Point: 172Temperature (Cp_Al = 903.45, k_Al = 145.79, sigma_Al = 4.0962E7, rho_Al = 2542.6, Cp_inlet = 855.8, k_inlet = 154.4, sigma_inlet = 3.3934E7, rho_inlet = 2558.9, Cp_outlet = 862.6, k_outlet = 155.88, sigma_outlet = 3.7848E7, rho_outlet = 2499.7, Cp_outlet_sleeve = 811.89, k_outlet_sleeve = 158.56, sigma_outlet_sleeve = 3.5732E7, rho_outlet_sleeve = 2551.7, Cp_inlet_sleeve = 920.07, k_inlet_sleeve = 150.56, sigma_inlet_sleeve = 4.2995E7, rho_inlet_sleeve = 2696.4) (degC), Point: 181Temperature (Cp_Al = 903.45, k_Al = 145.79, sigma_Al = 4.0962E7, rho_Al = 2542.6, Cp_inlet = 855.8, k_inlet = 154.4, sigma_inlet = 3.3934E7, rho_inlet = 2558.9, Cp_outlet = 862.6, k_outlet = 155.88, sigma_outlet = 3.7848E7, rho_outlet = 2499.7, Cp_outlet_sleeve = 811.89, k_outlet_sleeve = 158.56, sigma_outlet_sleeve = 3.5732E7, rho_outlet_sleeve = 2551.7, Cp_inlet_sleeve = 920.07, k_inlet_sleeve = 150.56, sigma_inlet_sleeve = 4.2995E7, rho_inlet_sleeve = 2696.4) (degC), Point: 201Temperature (Cp_Al = 903.45, k_Al = 145.79, sigma_Al = 4.0962E7, rho_Al = 2542.6, Cp_inlet = 855.8, k_inlet = 154.4, sigma_inlet = 3.3934E7, rho_inlet = 2558.9, Cp_outlet = 862.6, k_outlet = 155.88, sigma_outlet = 3.7848E7, rho_outlet = 2499.7, Cp_outlet_sleeve = 811.89, k_outlet_sleeve = 158.56, sigma_outlet_sleeve = 3.5732E7, rho_outlet_sleeve = 2551.7, Cp_inlet_sleeve = 920.07, k_inlet_sleeve = 150.56, sigma_inlet_sleeve = 4.2995E7, rho_inlet_sleeve = 2696.4) (degC), Point: 210Temperature (Cp_Al = 903.45, k_Al = 145.79, sigma_Al = 4.0962E7, rho_Al = 2542.6, Cp_inlet = 855.8, k_inlet = 154.4, sigma_inlet = 3.3934E7, rho_inlet = 2558.9, Cp_outlet = 862.6, k_outlet = 155.88, sigma_outlet = 3.7848E7, rho_outlet = 2499.7, Cp_outlet_sleeve = 811.89, k_outlet_sleeve = 158.56, sigma_outlet_sleeve = 3.5732E7, rho_outlet_sleeve = 2551.7, Cp_inlet_sleeve = 920.07, k_inlet_sleeve = 150.56, sigma_inlet_sleeve = 4.2995E7, rho_inlet_sleeve = 2696.4) (degC), Point: 213Temperature (Cp_Al = 903.45, k_Al = 145.79, sigma_Al = 4.0962E7, rho_Al = 2542.6, Cp_inlet = 855.8, k_inlet = 154.4, sigma_inlet = 3.3934E7, rho_inlet = 2558.9, Cp_outlet = 862.6, k_outlet = 155.88, sigma_outlet = 3.7848E7, rho_outlet = 2499.7, Cp_outlet_sleeve = 811.89, k_outlet_sleeve = 158.56, sigma_outlet_sleeve = 3.5732E7, rho_outlet_sleeve = 2551.7, Cp_inlet_sleeve = 920.07, k_inlet_sleeve = 150.56, sigma_inlet_sleeve = 4.2995E7, rho_inlet_sleeve = 2696.4) (degC), Point: 215Temperature (Cp_Al = 903.45, k_Al = 145.79, sigma_Al = 4.0962E7, rho_Al = 2542.6, Cp_inlet = 855.8, k_inlet = 154.4, sigma_inlet = 3.3934E7, rho_inlet = 2558.9, Cp_outlet = 862.6, k_outlet = 155.88, sigma_outlet = 3.7848E7, rho_outlet = 2499.7, Cp_outlet_sleeve = 811.89, k_outlet_sleeve = 158.56, sigma_outlet_sleeve = 3.5732E7, rho_outlet_sleeve = 2551.7, Cp_inlet_sleeve = 920.07, k_inlet_sleeve = 150.56, sigma_inlet_sleeve = 4.2995E7, rho_inlet_sleeve = 2696.4) (degC), Point: 229Temperature (Cp_Al = 903.45, k_Al = 145.79, sigma_Al = 4.0962E7, rho_Al = 2542.6, Cp_inlet = 855.8, k_inlet = 154.4, sigma_inlet = 3.3934E7, rho_inlet = 2558.9, Cp_outlet = 862.6, k_outlet = 155.88, sigma_outlet = 3.7848E7, rho_outlet = 2499.7, Cp_outlet_sleeve = 811.89, k_outlet_sleeve = 158.56, sigma_outlet_sleeve = 3.5732E7, rho_outlet_sleeve = 2551.7, Cp_inlet_sleeve = 920.07, k_inlet_sleeve = 150.56, sigma_inlet_sleeve = 4.2995E7, rho_inlet_sleeve = 2696.4) (degC), Point: 232Temperature (Cp_Al = 903.45, k_Al = 145.79, sigma_Al = 4.0962E7, rho_Al = 2542.6, Cp_inlet = 855.8, k_inlet = 154.4, sigma_inlet = 3.3934E7, rho_inlet = 2558.9, Cp_outlet = 862.6, k_outlet = 155.88, sigma_outlet = 3.7848E7, rho_outlet = 2499.7, Cp_outlet_sleeve = 811.89, k_outlet_sleeve = 158.56, sigma_outlet_sleeve = 3.5732E7, rho_outlet_sleeve = 2551.7, Cp_inlet_sleeve = 920.07, k_inlet_sleeve = 150.56, sigma_inlet_sleeve = 4.2995E7, rho_inlet_sleeve = 2696.4) (degC), Point: 239Temperature (Cp_Al = 903.45, k_Al = 145.79, sigma_Al = 4.0962E7, rho_Al = 2542.6, Cp_inlet = 855.8, k_inlet = 154.4, sigma_inlet = 3.3934E7, rho_inlet = 2558.9, Cp_outlet = 862.6, k_outlet = 155.88, sigma_outlet = 3.7848E7, rho_outlet = 2499.7, Cp_outlet_sleeve = 811.89, k_outlet_sleeve = 158.56, sigma_outlet_sleeve = 3.5732E7, rho_outlet_sleeve = 2551.7, Cp_inlet_sleeve = 920.07, k_inlet_sleeve = 150.56, sigma_inlet_sleeve = 4.2995E7, rho_inlet_sleeve = 2696.4) (degC), Point: 252Temperature (Cp_Al = 903.45, k_Al = 145.79, sigma_Al = 4.0962E7, rho_Al = 2542.6, Cp_inlet = 855.8, k_inlet = 154.4, sigma_inlet = 3.3934E7, rho_inlet = 2558.9, Cp_outlet = 862.6, k_outlet = 155.88, sigma_outlet = 3.7848E7, rho_outlet = 2499.7, Cp_outlet_sleeve = 811.89, k_outlet_sleeve = 158.56, sigma_outlet_sleeve = 3.5732E7, rho_outlet_sleeve = 2551.7, Cp_inlet_sleeve = 920.07, k_inlet_sleeve = 150.56, sigma_inlet_sleeve = 4.2995E7, rho_inlet_sleeve = 2696.4) (degC), Point: 261Temperature (Cp_Al = 903.45, k_Al = 145.79, sigma_Al = 4.0962E7, rho_Al = 2542.6, Cp_inlet = 855.8, k_inlet = 154.4, sigma_inlet = 3.3934E7, rho_inlet = 2558.9, Cp_outlet = 862.6, k_outlet = 155.88, sigma_outlet = 3.7848E7, rho_outlet = 2499.7, Cp_outlet_sleeve = 811.89, k_outlet_sleeve = 158.56, sigma_outlet_sleeve = 3.5732E7, rho_outlet_sleeve = 2551.7, Cp_inlet_sleeve = 920.07, k_inlet_sleeve = 150.56, sigma_inlet_sleeve = 4.2995E7, rho_inlet_sleeve = 2696.4) (degC), Point: 270Temperature (Cp_Al = 903.45, k_Al = 145.79, sigma_Al = 4.0962E7, rho_Al = 2542.6, Cp_inlet = 855.8, k_inlet = 154.4, sigma_inlet = 3.3934E7, rho_inlet = 2558.9, Cp_outlet = 862.6, k_outlet = 155.88, sigma_outlet = 3.7848E7, rho_outlet = 2499.7, Cp_outlet_sleeve = 811.89, k_outlet_sleeve = 158.56, sigma_outlet_sleeve = 3.5732E7, rho_outlet_sleeve = 2551.7, Cp_inlet_sleeve = 920.07, k_inlet_sleeve = 150.56, sigma_inlet_sleeve = 4.2995E7, rho_inlet_sleeve = 2696.4) (degC), Point: 273Temperature (Cp_Al = 903.45, k_Al = 145.79, sigma_Al = 4.0962E7, rho_Al = 2542.6, Cp_inlet = 855.8, k_inlet = 154.4, sigma_inlet = 3.3934E7, rho_inlet = 2558.9, Cp_outlet = 862.6, k_outlet = 155.88, sigma_outlet = 3.7848E7, rho_outlet = 2499.7, Cp_outlet_sleeve = 811.89, k_outlet_sleeve = 158.56, sigma_outlet_sleeve = 3.5732E7, rho_outlet_sleeve = 2551.7, Cp_inlet_sleeve = 920.07, k_inlet_sleeve = 150.56, sigma_inlet_sleeve = 4.2995E7, rho_inlet_sleeve = 2696.4) (degC), Point: 275
0                        21.66006238664488        21.013121286747094       21.131698579894703       21.008721048434268       21.01313064467729        21.10797659970882        21.008860867793203       21.025850195356156       21.001356610373705       21.024550126286215       21.00124302976525        21.000646411796367       21.009475712971494       21.00010628679712        21.007639269374522       21.02169243380888        21.000055640155608       21.011544289663163       21.00073847355378        21.000299604541453       21.001772217846735       21.00017593582544        21.000270488859485       21.008849696386164       21.11844217868986        21.01259228564345        21.54363612988402        21.008607479145667       21.14455259852815        21.016442234962483       21.73426678913171
3                        314.03851871922916       279.0507572840688        288.32382209362845       283.6101161087736        262.19619489595004       275.32891240649747       273.81592467849794       261.50016698764273       256.4405873181952        267.9138139412204        270.1210364542527        261.7757731959915        258.9509494988208        245.7244026015635        250.78620902169177       246.10733370120636       241.49012823967337       250.4927972232441        251.94744608428869       245.68389606163294       244.78410008415165       238.1895315689219        240.99595290215973       275.8853607234114        277.83413708947637       263.8312518596932        298.9691533234877        285.2003657242494        290.17650827958323       278.3125352086412        318.3307108970761
6                        439.38079214432173       402.8620240490776        415.91269481024347       411.913823503328         388.2749897653913        406.2238918878579        405.70560181571557       389.44826227665556       382.3630806067134        398.70581440526655       401.9131937948018        393.5528156831241        389.73186340286315       371.62891912400244       378.70708697784653       370.17951917866515       363.9578424972102        376.92895485627923       379.1360657702694        372.8474407496004        371.25732774158496       360.8807764492183        365.23213680126025       407.5743673210678        408.5026643354281        389.57768703585316       426.75897955937023       411.14652022154087       415.38976012290493       399.50261314905003       441.16575212879184
9                        512.9086633964524        475.4742601454684        491.239425965608         487.9756596098657        460.7938950813866        482.009699127388         482.37282954817124       463.0417461372357        454.7886076037032        474.43484869935105       478.527250374795         470.1575625951442        465.45240795824293       444.0408249582107        452.27798044962844       442.8527800332108        435.66848558612753       451.4837503810602        454.4556514145887        448.2815184432985        445.9577327881476        432.83176276327583       438.1145388557369        484.1347917223268        484.1585719782951        461.89476582431655       500.25380155226514       485.811871078805         489.29043861953767       470.49456781836545       513.153113709832
12                       563.3784445644878        525.3245349393096        543.0896087971448        540.4337228607552        509.51322023463854       533.0217250175613        534.069734114055         512.454113208419         503.4479221477742        525.4116050123781        530.1913441045897        521.8182619929245        516.4256517452869        492.69212939729266       501.67572310343746       492.81759355825443       484.9825946883284        502.88636957940616       506.48805463247027       500.39212517631483       497.45125068098696       482.28113608212004       488.19764370742485       535.769673537577         535.0905485638408        510.48498086979873       549.6030668188481        537.4812784974204        540.3197972637574        519.3708163090382        562.7056966871043
15                       601.5780320274159        563.0698952523823        582.3847041435158        580.2309429781894        545.7009102444475        570.8913263828778        572.4714297669201        549.1235809549914        539.5948909580824        563.2578885132579        568.5714823312009        560.1989766551189        554.2721407611211        528.8358409043977        538.336888622788         530.6966221658186        522.3857799876798        541.9025321887643        546.0230428531797        540.007009498239         536.5509627943153        519.7868941617306        526.1697752695129        574.1343167720264        572.9091051250019        546.5871586705738        586.2315168480782        576.8244778003965        579.1302274997145        556.5090781510972        600.3401689300784
18                       632.1102995609801        593.2543994152034        613.8129578674946        612.082264790872         574.1233017025053        600.5893098562142        602.5925594077519        577.8943159593088        567.9892880468101        592.9403568911658        598.6783675705474        590.3083305082815        583.956593256525         557.2295200917459        567.1029141478897        561.0196614863398        552.3456633875877        573.1527229401024        577.7094089686404        571.7738121529617        567.8806293744651        549.8320036139387        556.5726902175664        604.2338230410812        602.574402928412         574.9522199394733        614.9752308969163        608.4206151928549        610.275372283181         586.3117702024472        630.5221828688238
21                       658.1725388542966        619.0346041812807        640.6328394263951        639.266038577199         598.0972010726376        625.5831113072545        627.935363976146         602.1379576766996        591.943102331481         617.9233895019601        624.0113442208898        615.6445513119041        608.9423734988995        581.1839348544921        591.3438479429493        586.936165538866         577.9686487860921        599.8511661288485        604.7823341196837        598.9240685182178        594.6536412199658        575.5297000954588        582.5605012469023        629.5638608670131        627.5464308425044        598.8860552081704        639.2002988199446        635.456404309751         636.9227060414312        611.8390345844479        656.3558471263206
24                       681.4453693727855        642.069952370909         664.5595908746178        663.5097457068235        619.3850352164854        647.7218671913407        650.3711556979915        623.6463886674381        613.2160030317169        640.0544043529759        646.4401040009308        638.0767784432287        631.0763865204436        602.4580837344123        612.8506883566121        610.101980518432         600.8881067879032        623.690363658175         628.9471923744752        623.1604328788508        618.5610747108586        598.5154359580633        605.7901329697869        651.9921679753165        649.6701757582368        620.1448669307453        660.6954592284159        659.6115086272273        660.7396624643364        634.6986261031547        679.4721169987774
27                       702.7448004122037        663.1664039206875        686.4271102200378        685.6540832037174        638.8569551835848        667.9196516926264        670.825881393382         643.3039608965047        632.6766350550184        660.2465502675586        666.8897277302376        658.5298332231708        651.2715332394915        621.9202636227869        632.5073333765451        631.3207085440961        621.8968821133294        645.492958995661         651.033811681894         645.3117790582916        640.4251197507978        619.5829595315613        627.0656945870414        672.4428179281084        669.8575067677207        639.5954239066048        680.3433761840244        681.7034928928342        682.5367187000548        655.6703284659042        700.6620683463901
