% Model:              brazing.mph
% Version:            COMSOL 5.3.0.223
% Date:               Oct 24 2018, 05:34
% Table:              Table 3 - 
% Time (s)               Temperature (Cp_Al = 966.4, k_Al = 137.52, sigma_Al = 5.0187E7, rho_Al = 2231.1, Cp_inlet = 666.58, k_inlet = 160.63, sigma_inlet = 2.9279E7, rho_inlet = 2673.6, Cp_outlet = 979.3, k_outlet = 157.36, sigma_outlet = 4.0274E7, rho_outlet = 1959.5, Cp_outlet_sleeve = 739.88, k_outlet_sleeve = 151.38, sigma_outlet_sleeve = 3.6664E7, rho_outlet_sleeve = 2624.9, Cp_inlet_sleeve = 879.73, k_inlet_sleeve = 113.63, sigma_inlet_sleeve = 5.5083E7, rho_inlet_sleeve = 2863.3) (degC), Point: 55Temperature (Cp_Al = 966.4, k_Al = 137.52, sigma_Al = 5.0187E7, rho_Al = 2231.1, Cp_inlet = 666.58, k_inlet = 160.63, sigma_inlet = 2.9279E7, rho_inlet = 2673.6, Cp_outlet = 979.3, k_outlet = 157.36, sigma_outlet = 4.0274E7, rho_outlet = 1959.5, Cp_outlet_sleeve = 739.88, k_outlet_sleeve = 151.38, sigma_outlet_sleeve = 3.6664E7, rho_outlet_sleeve = 2624.9, Cp_inlet_sleeve = 879.73, k_inlet_sleeve = 113.63, sigma_inlet_sleeve = 5.5083E7, rho_inlet_sleeve = 2863.3) (degC), Point: 56Temperature (Cp_Al = 966.4, k_Al = 137.52, sigma_Al = 5.0187E7, rho_Al = 2231.1, Cp_inlet = 666.58, k_inlet = 160.63, sigma_inlet = 2.9279E7, rho_inlet = 2673.6, Cp_outlet = 979.3, k_outlet = 157.36, sigma_outlet = 4.0274E7, rho_outlet = 1959.5, Cp_outlet_sleeve = 739.88, k_outlet_sleeve = 151.38, sigma_outlet_sleeve = 3.6664E7, rho_outlet_sleeve = 2624.9, Cp_inlet_sleeve = 879.73, k_inlet_sleeve = 113.63, sigma_inlet_sleeve = 5.5083E7, rho_inlet_sleeve = 2863.3) (degC), Point: 60Temperature (Cp_Al = 966.4, k_Al = 137.52, sigma_Al = 5.0187E7, rho_Al = 2231.1, Cp_inlet = 666.58, k_inlet = 160.63, sigma_inlet = 2.9279E7, rho_inlet = 2673.6, Cp_outlet = 979.3, k_outlet = 157.36, sigma_outlet = 4.0274E7, rho_outlet = 1959.5, Cp_outlet_sleeve = 739.88, k_outlet_sleeve = 151.38, sigma_outlet_sleeve = 3.6664E7, rho_outlet_sleeve = 2624.9, Cp_inlet_sleeve = 879.73, k_inlet_sleeve = 113.63, sigma_inlet_sleeve = 5.5083E7, rho_inlet_sleeve = 2863.3) (degC), Point: 69Temperature (Cp_Al = 966.4, k_Al = 137.52, sigma_Al = 5.0187E7, rho_Al = 2231.1, Cp_inlet = 666.58, k_inlet = 160.63, sigma_inlet = 2.9279E7, rho_inlet = 2673.6, Cp_outlet = 979.3, k_outlet = 157.36, sigma_outlet = 4.0274E7, rho_outlet = 1959.5, Cp_outlet_sleeve = 739.88, k_outlet_sleeve = 151.38, sigma_outlet_sleeve = 3.6664E7, rho_outlet_sleeve = 2624.9, Cp_inlet_sleeve = 879.73, k_inlet_sleeve = 113.63, sigma_inlet_sleeve = 5.5083E7, rho_inlet_sleeve = 2863.3) (degC), Point: 90Temperature (Cp_Al = 966.4, k_Al = 137.52, sigma_Al = 5.0187E7, rho_Al = 2231.1, Cp_inlet = 666.58, k_inlet = 160.63, sigma_inlet = 2.9279E7, rho_inlet = 2673.6, Cp_outlet = 979.3, k_outlet = 157.36, sigma_outlet = 4.0274E7, rho_outlet = 1959.5, Cp_outlet_sleeve = 739.88, k_outlet_sleeve = 151.38, sigma_outlet_sleeve = 3.6664E7, rho_outlet_sleeve = 2624.9, Cp_inlet_sleeve = 879.73, k_inlet_sleeve = 113.63, sigma_inlet_sleeve = 5.5083E7, rho_inlet_sleeve = 2863.3) (degC), Point: 98Temperature (Cp_Al = 966.4, k_Al = 137.52, sigma_Al = 5.0187E7, rho_Al = 2231.1, Cp_inlet = 666.58, k_inlet = 160.63, sigma_inlet = 2.9279E7, rho_inlet = 2673.6, Cp_outlet = 979.3, k_outlet = 157.36, sigma_outlet = 4.0274E7, rho_outlet = 1959.5, Cp_outlet_sleeve = 739.88, k_outlet_sleeve = 151.38, sigma_outlet_sleeve = 3.6664E7, rho_outlet_sleeve = 2624.9, Cp_inlet_sleeve = 879.73, k_inlet_sleeve = 113.63, sigma_inlet_sleeve = 5.5083E7, rho_inlet_sleeve = 2863.3) (degC), Point: 102Temperature (Cp_Al = 966.4, k_Al = 137.52, sigma_Al = 5.0187E7, rho_Al = 2231.1, Cp_inlet = 666.58, k_inlet = 160.63, sigma_inlet = 2.9279E7, rho_inlet = 2673.6, Cp_outlet = 979.3, k_outlet = 157.36, sigma_outlet = 4.0274E7, rho_outlet = 1959.5, Cp_outlet_sleeve = 739.88, k_outlet_sleeve = 151.38, sigma_outlet_sleeve = 3.6664E7, rho_outlet_sleeve = 2624.9, Cp_inlet_sleeve = 879.73, k_inlet_sleeve = 113.63, sigma_inlet_sleeve = 5.5083E7, rho_inlet_sleeve = 2863.3) (degC), Point: 127Temperature (Cp_Al = 966.4, k_Al = 137.52, sigma_Al = 5.0187E7, rho_Al = 2231.1, Cp_inlet = 666.58, k_inlet = 160.63, sigma_inlet = 2.9279E7, rho_inlet = 2673.6, Cp_outlet = 979.3, k_outlet = 157.36, sigma_outlet = 4.0274E7, rho_outlet = 1959.5, Cp_outlet_sleeve = 739.88, k_outlet_sleeve = 151.38, sigma_outlet_sleeve = 3.6664E7, rho_outlet_sleeve = 2624.9, Cp_inlet_sleeve = 879.73, k_inlet_sleeve = 113.63, sigma_inlet_sleeve = 5.5083E7, rho_inlet_sleeve = 2863.3) (degC), Point: 128Temperature (Cp_Al = 966.4, k_Al = 137.52, sigma_Al = 5.0187E7, rho_Al = 2231.1, Cp_inlet = 666.58, k_inlet = 160.63, sigma_inlet = 2.9279E7, rho_inlet = 2673.6, Cp_outlet = 979.3, k_outlet = 157.36, sigma_outlet = 4.0274E7, rho_outlet = 1959.5, Cp_outlet_sleeve = 739.88, k_outlet_sleeve = 151.38, sigma_outlet_sleeve = 3.6664E7, rho_outlet_sleeve = 2624.9, Cp_inlet_sleeve = 879.73, k_inlet_sleeve = 113.63, sigma_inlet_sleeve = 5.5083E7, rho_inlet_sleeve = 2863.3) (degC), Point: 134Temperature (Cp_Al = 966.4, k_Al = 137.52, sigma_Al = 5.0187E7, rho_Al = 2231.1, Cp_inlet = 666.58, k_inlet = 160.63, sigma_inlet = 2.9279E7, rho_inlet = 2673.6, Cp_outlet = 979.3, k_outlet = 157.36, sigma_outlet = 4.0274E7, rho_outlet = 1959.5, Cp_outlet_sleeve = 739.88, k_outlet_sleeve = 151.38, sigma_outlet_sleeve = 3.6664E7, rho_outlet_sleeve = 2624.9, Cp_inlet_sleeve = 879.73, k_inlet_sleeve = 113.63, sigma_inlet_sleeve = 5.5083E7, rho_inlet_sleeve = 2863.3) (degC), Point: 138Temperature (Cp_Al = 966.4, k_Al = 137.52, sigma_Al = 5.0187E7, rho_Al = 2231.1, Cp_inlet = 666.58, k_inlet = 160.63, sigma_inlet = 2.9279E7, rho_inlet = 2673.6, Cp_outlet = 979.3, k_outlet = 157.36, sigma_outlet = 4.0274E7, rho_outlet = 1959.5, Cp_outlet_sleeve = 739.88, k_outlet_sleeve = 151.38, sigma_outlet_sleeve = 3.6664E7, rho_outlet_sleeve = 2624.9, Cp_inlet_sleeve = 879.73, k_inlet_sleeve = 113.63, sigma_inlet_sleeve = 5.5083E7, rho_inlet_sleeve = 2863.3) (degC), Point: 151Temperature (Cp_Al = 966.4, k_Al = 137.52, sigma_Al = 5.0187E7, rho_Al = 2231.1, Cp_inlet = 666.58, k_inlet = 160.63, sigma_inlet = 2.9279E7, rho_inlet = 2673.6, Cp_outlet = 979.3, k_outlet = 157.36, sigma_outlet = 4.0274E7, rho_outlet = 1959.5, Cp_outlet_sleeve = 739.88, k_outlet_sleeve = 151.38, sigma_outlet_sleeve = 3.6664E7, rho_outlet_sleeve = 2624.9, Cp_inlet_sleeve = 879.73, k_inlet_sleeve = 113.63, sigma_inlet_sleeve = 5.5083E7, rho_inlet_sleeve = 2863.3) (degC), Point: 154Temperature (Cp_Al = 966.4, k_Al = 137.52, sigma_Al = 5.0187E7, rho_Al = 2231.1, Cp_inlet = 666.58, k_inlet = 160.63, sigma_inlet = 2.9279E7, rho_inlet = 2673.6, Cp_outlet = 979.3, k_outlet = 157.36, sigma_outlet = 4.0274E7, rho_outlet = 1959.5, Cp_outlet_sleeve = 739.88, k_outlet_sleeve = 151.38, sigma_outlet_sleeve = 3.6664E7, rho_outlet_sleeve = 2624.9, Cp_inlet_sleeve = 879.73, k_inlet_sleeve = 113.63, sigma_inlet_sleeve = 5.5083E7, rho_inlet_sleeve = 2863.3) (degC), Point: 159Temperature (Cp_Al = 966.4, k_Al = 137.52, sigma_Al = 5.0187E7, rho_Al = 2231.1, Cp_inlet = 666.58, k_inlet = 160.63, sigma_inlet = 2.9279E7, rho_inlet = 2673.6, Cp_outlet = 979.3, k_outlet = 157.36, sigma_outlet = 4.0274E7, rho_outlet = 1959.5, Cp_outlet_sleeve = 739.88, k_outlet_sleeve = 151.38, sigma_outlet_sleeve = 3.6664E7, rho_outlet_sleeve = 2624.9, Cp_inlet_sleeve = 879.73, k_inlet_sleeve = 113.63, sigma_inlet_sleeve = 5.5083E7, rho_inlet_sleeve = 2863.3) (degC), Point: 163Temperature (Cp_Al = 966.4, k_Al = 137.52, sigma_Al = 5.0187E7, rho_Al = 2231.1, Cp_inlet = 666.58, k_inlet = 160.63, sigma_inlet = 2.9279E7, rho_inlet = 2673.6, Cp_outlet = 979.3, k_outlet = 157.36, sigma_outlet = 4.0274E7, rho_outlet = 1959.5, Cp_outlet_sleeve = 739.88, k_outlet_sleeve = 151.38, sigma_outlet_sleeve = 3.6664E7, rho_outlet_sleeve = 2624.9, Cp_inlet_sleeve = 879.73, k_inlet_sleeve = 113.63, sigma_inlet_sleeve = 5.5083E7, rho_inlet_sleeve = 2863.3) (degC), Point: 167Temperature (Cp_Al = 966.4, k_Al = 137.52, sigma_Al = 5.0187E7, rho_Al = 2231.1, Cp_inlet = 666.58, k_inlet = 160.63, sigma_inlet = 2.9279E7, rho_inlet = 2673.6, Cp_outlet = 979.3, k_outlet = 157.36, sigma_outlet = 4.0274E7, rho_outlet = 1959.5, Cp_outlet_sleeve = 739.88, k_outlet_sleeve = 151.38, sigma_outlet_sleeve = 3.6664E7, rho_outlet_sleeve = 2624.9, Cp_inlet_sleeve = 879.73, k_inlet_sleeve = 113.63, sigma_inlet_sleeve = 5.5083E7, rho_inlet_sleeve = 2863.3) (degC), Point: 168Temperature (Cp_Al = 966.4, k_Al = 137.52, sigma_Al = 5.0187E7, rho_Al = 2231.1, Cp_inlet = 666.58, k_inlet = 160.63, sigma_inlet = 2.9279E7, rho_inlet = 2673.6, Cp_outlet = 979.3, k_outlet = 157.36, sigma_outlet = 4.0274E7, rho_outlet = 1959.5, Cp_outlet_sleeve = 739.88, k_outlet_sleeve = 151.38, sigma_outlet_sleeve = 3.6664E7, rho_outlet_sleeve = 2624.9, Cp_inlet_sleeve = 879.73, k_inlet_sleeve = 113.63, sigma_inlet_sleeve = 5.5083E7, rho_inlet_sleeve = 2863.3) (degC), Point: 172Temperature (Cp_Al = 966.4, k_Al = 137.52, sigma_Al = 5.0187E7, rho_Al = 2231.1, Cp_inlet = 666.58, k_inlet = 160.63, sigma_inlet = 2.9279E7, rho_inlet = 2673.6, Cp_outlet = 979.3, k_outlet = 157.36, sigma_outlet = 4.0274E7, rho_outlet = 1959.5, Cp_outlet_sleeve = 739.88, k_outlet_sleeve = 151.38, sigma_outlet_sleeve = 3.6664E7, rho_outlet_sleeve = 2624.9, Cp_inlet_sleeve = 879.73, k_inlet_sleeve = 113.63, sigma_inlet_sleeve = 5.5083E7, rho_inlet_sleeve = 2863.3) (degC), Point: 181Temperature (Cp_Al = 966.4, k_Al = 137.52, sigma_Al = 5.0187E7, rho_Al = 2231.1, Cp_inlet = 666.58, k_inlet = 160.63, sigma_inlet = 2.9279E7, rho_inlet = 2673.6, Cp_outlet = 979.3, k_outlet = 157.36, sigma_outlet = 4.0274E7, rho_outlet = 1959.5, Cp_outlet_sleeve = 739.88, k_outlet_sleeve = 151.38, sigma_outlet_sleeve = 3.6664E7, rho_outlet_sleeve = 2624.9, Cp_inlet_sleeve = 879.73, k_inlet_sleeve = 113.63, sigma_inlet_sleeve = 5.5083E7, rho_inlet_sleeve = 2863.3) (degC), Point: 201Temperature (Cp_Al = 966.4, k_Al = 137.52, sigma_Al = 5.0187E7, rho_Al = 2231.1, Cp_inlet = 666.58, k_inlet = 160.63, sigma_inlet = 2.9279E7, rho_inlet = 2673.6, Cp_outlet = 979.3, k_outlet = 157.36, sigma_outlet = 4.0274E7, rho_outlet = 1959.5, Cp_outlet_sleeve = 739.88, k_outlet_sleeve = 151.38, sigma_outlet_sleeve = 3.6664E7, rho_outlet_sleeve = 2624.9, Cp_inlet_sleeve = 879.73, k_inlet_sleeve = 113.63, sigma_inlet_sleeve = 5.5083E7, rho_inlet_sleeve = 2863.3) (degC), Point: 210Temperature (Cp_Al = 966.4, k_Al = 137.52, sigma_Al = 5.0187E7, rho_Al = 2231.1, Cp_inlet = 666.58, k_inlet = 160.63, sigma_inlet = 2.9279E7, rho_inlet = 2673.6, Cp_outlet = 979.3, k_outlet = 157.36, sigma_outlet = 4.0274E7, rho_outlet = 1959.5, Cp_outlet_sleeve = 739.88, k_outlet_sleeve = 151.38, sigma_outlet_sleeve = 3.6664E7, rho_outlet_sleeve = 2624.9, Cp_inlet_sleeve = 879.73, k_inlet_sleeve = 113.63, sigma_inlet_sleeve = 5.5083E7, rho_inlet_sleeve = 2863.3) (degC), Point: 213Temperature (Cp_Al = 966.4, k_Al = 137.52, sigma_Al = 5.0187E7, rho_Al = 2231.1, Cp_inlet = 666.58, k_inlet = 160.63, sigma_inlet = 2.9279E7, rho_inlet = 2673.6, Cp_outlet = 979.3, k_outlet = 157.36, sigma_outlet = 4.0274E7, rho_outlet = 1959.5, Cp_outlet_sleeve = 739.88, k_outlet_sleeve = 151.38, sigma_outlet_sleeve = 3.6664E7, rho_outlet_sleeve = 2624.9, Cp_inlet_sleeve = 879.73, k_inlet_sleeve = 113.63, sigma_inlet_sleeve = 5.5083E7, rho_inlet_sleeve = 2863.3) (degC), Point: 215Temperature (Cp_Al = 966.4, k_Al = 137.52, sigma_Al = 5.0187E7, rho_Al = 2231.1, Cp_inlet = 666.58, k_inlet = 160.63, sigma_inlet = 2.9279E7, rho_inlet = 2673.6, Cp_outlet = 979.3, k_outlet = 157.36, sigma_outlet = 4.0274E7, rho_outlet = 1959.5, Cp_outlet_sleeve = 739.88, k_outlet_sleeve = 151.38, sigma_outlet_sleeve = 3.6664E7, rho_outlet_sleeve = 2624.9, Cp_inlet_sleeve = 879.73, k_inlet_sleeve = 113.63, sigma_inlet_sleeve = 5.5083E7, rho_inlet_sleeve = 2863.3) (degC), Point: 229Temperature (Cp_Al = 966.4, k_Al = 137.52, sigma_Al = 5.0187E7, rho_Al = 2231.1, Cp_inlet = 666.58, k_inlet = 160.63, sigma_inlet = 2.9279E7, rho_inlet = 2673.6, Cp_outlet = 979.3, k_outlet = 157.36, sigma_outlet = 4.0274E7, rho_outlet = 1959.5, Cp_outlet_sleeve = 739.88, k_outlet_sleeve = 151.38, sigma_outlet_sleeve = 3.6664E7, rho_outlet_sleeve = 2624.9, Cp_inlet_sleeve = 879.73, k_inlet_sleeve = 113.63, sigma_inlet_sleeve = 5.5083E7, rho_inlet_sleeve = 2863.3) (degC), Point: 232Temperature (Cp_Al = 966.4, k_Al = 137.52, sigma_Al = 5.0187E7, rho_Al = 2231.1, Cp_inlet = 666.58, k_inlet = 160.63, sigma_inlet = 2.9279E7, rho_inlet = 2673.6, Cp_outlet = 979.3, k_outlet = 157.36, sigma_outlet = 4.0274E7, rho_outlet = 1959.5, Cp_outlet_sleeve = 739.88, k_outlet_sleeve = 151.38, sigma_outlet_sleeve = 3.6664E7, rho_outlet_sleeve = 2624.9, Cp_inlet_sleeve = 879.73, k_inlet_sleeve = 113.63, sigma_inlet_sleeve = 5.5083E7, rho_inlet_sleeve = 2863.3) (degC), Point: 239Temperature (Cp_Al = 966.4, k_Al = 137.52, sigma_Al = 5.0187E7, rho_Al = 2231.1, Cp_inlet = 666.58, k_inlet = 160.63, sigma_inlet = 2.9279E7, rho_inlet = 2673.6, Cp_outlet = 979.3, k_outlet = 157.36, sigma_outlet = 4.0274E7, rho_outlet = 1959.5, Cp_outlet_sleeve = 739.88, k_outlet_sleeve = 151.38, sigma_outlet_sleeve = 3.6664E7, rho_outlet_sleeve = 2624.9, Cp_inlet_sleeve = 879.73, k_inlet_sleeve = 113.63, sigma_inlet_sleeve = 5.5083E7, rho_inlet_sleeve = 2863.3) (degC), Point: 252Temperature (Cp_Al = 966.4, k_Al = 137.52, sigma_Al = 5.0187E7, rho_Al = 2231.1, Cp_inlet = 666.58, k_inlet = 160.63, sigma_inlet = 2.9279E7, rho_inlet = 2673.6, Cp_outlet = 979.3, k_outlet = 157.36, sigma_outlet = 4.0274E7, rho_outlet = 1959.5, Cp_outlet_sleeve = 739.88, k_outlet_sleeve = 151.38, sigma_outlet_sleeve = 3.6664E7, rho_outlet_sleeve = 2624.9, Cp_inlet_sleeve = 879.73, k_inlet_sleeve = 113.63, sigma_inlet_sleeve = 5.5083E7, rho_inlet_sleeve = 2863.3) (degC), Point: 261Temperature (Cp_Al = 966.4, k_Al = 137.52, sigma_Al = 5.0187E7, rho_Al = 2231.1, Cp_inlet = 666.58, k_inlet = 160.63, sigma_inlet = 2.9279E7, rho_inlet = 2673.6, Cp_outlet = 979.3, k_outlet = 157.36, sigma_outlet = 4.0274E7, rho_outlet = 1959.5, Cp_outlet_sleeve = 739.88, k_outlet_sleeve = 151.38, sigma_outlet_sleeve = 3.6664E7, rho_outlet_sleeve = 2624.9, Cp_inlet_sleeve = 879.73, k_inlet_sleeve = 113.63, sigma_inlet_sleeve = 5.5083E7, rho_inlet_sleeve = 2863.3) (degC), Point: 270Temperature (Cp_Al = 966.4, k_Al = 137.52, sigma_Al = 5.0187E7, rho_Al = 2231.1, Cp_inlet = 666.58, k_inlet = 160.63, sigma_inlet = 2.9279E7, rho_inlet = 2673.6, Cp_outlet = 979.3, k_outlet = 157.36, sigma_outlet = 4.0274E7, rho_outlet = 1959.5, Cp_outlet_sleeve = 739.88, k_outlet_sleeve = 151.38, sigma_outlet_sleeve = 3.6664E7, rho_outlet_sleeve = 2624.9, Cp_inlet_sleeve = 879.73, k_inlet_sleeve = 113.63, sigma_inlet_sleeve = 5.5083E7, rho_inlet_sleeve = 2863.3) (degC), Point: 273Temperature (Cp_Al = 966.4, k_Al = 137.52, sigma_Al = 5.0187E7, rho_Al = 2231.1, Cp_inlet = 666.58, k_inlet = 160.63, sigma_inlet = 2.9279E7, rho_inlet = 2673.6, Cp_outlet = 979.3, k_outlet = 157.36, sigma_outlet = 4.0274E7, rho_outlet = 1959.5, Cp_outlet_sleeve = 739.88, k_outlet_sleeve = 151.38, sigma_outlet_sleeve = 3.6664E7, rho_outlet_sleeve = 2624.9, Cp_inlet_sleeve = 879.73, k_inlet_sleeve = 113.63, sigma_inlet_sleeve = 5.5083E7, rho_inlet_sleeve = 2863.3) (degC), Point: 275
0                        21.710447904571197       21.013828116411105       21.130815567683328       21.009242583451737       21.012775116489934       21.10702202485669        21.01004204250455        21.02935618674917        21.00124912147936        21.02438184230209        21.001381911296562       21.00069803212773        21.009307292834478       21.000102208364865       21.008484859790258       21.023416707315732       21.000058229998103       21.01148333765974        21.000790009312766       21.000322096685807       21.001769223905796       21.00018396190984        21.000286676425617       21.010024482420818       21.117357386977517       21.012108959530792       21.60275494001064        21.00911014385474        21.143558287295605       21.017458274062506       21.790285963845236
3                        329.4202552208674        292.68955082283037       301.86183747052655       297.1941440094025        278.83844204927027       294.0695943329828        293.3038208035357        278.669796841446         271.86519667871187       286.48890292703663       289.5055259852893        281.2091516623061        277.5717402784999        260.95430654039217       267.3953874917256        259.41017286108547       254.52297713248947       263.9312484966772        265.47771829996805       259.34689781862846       258.34138277331783       251.32821155110548       254.31120081883023       295.4675671222701        296.6818924038197        280.71503608684816       327.7629939337073        298.6841052082448        303.6336916602777        291.91521508204755       333.87505354981226
6                        457.7452981242668        419.4363108147197        432.4561146054657        428.5012862767744        420.9491678636226        440.5839817488978        440.5541805618725        422.9010341774342        413.81988724232826       432.90427977900424       436.66382559002807       428.372099378788         423.9975688929019        402.924406714841         411.62892213868133       386.37037492292245       379.82553883692356       393.287792133411         395.58884068106147       389.58322807681714       387.8898572896928        377.03127743677385       381.6033808438           442.5443808281219        443.0017443150881        422.5283094176908        471.86824574557534       427.64184252982045       431.85754022467245       416.0368324628181        459.69228213670806
9                        531.8194754917962        492.58204101875504       508.3273276995419        505.1045781170369        505.35494849679185       528.1995631025407        528.9186932590097        508.60601578458625       498.1399577798843        520.4698960217838        524.9821875142144        516.6821515387893        511.55542133982806       487.23034808038585       497.3095880854437        459.60239227962666       452.0798796922095        468.40363914328225       471.46867427624693       465.6045643756821        463.17619540705664       449.5483232977763        455.0664478934116        530.8150847401538        530.5030617406082        506.7474498017265        557.4815976947831        502.9147938423232        506.362196657724         487.6058125303582        532.2737638546885
12                       582.9593005579128        543.0896630401643        560.8494096932722        558.2327842732982        562.9144671388386        588.1609197281598        589.5152148220726        567.0502016246775        555.6449840719894        580.4007111878608        585.5506739145026        577.2460892416643        571.4811812234476        544.7231583250125        555.7339593354732        510.2553627033103        502.0687548361484        520.4974465096161        524.1913793294402        518.4133285740699        515.36548501262          499.668826242505         505.83595000353546       591.3569685925337        590.3928530481078        564.1848077763107        615.863796769793         555.3026974565272        558.1066179434728        537.1695825979887        582.5302021261462
15                       621.5028864322793        581.1695705658633        600.4967833763416        598.3857414439037        605.1917156210147        632.2882900506069        634.1718608641222        609.9623689380554        597.8856834254482        624.5083490555918        630.1893467772973        621.8845022881138        615.5878393309263        586.95701331489          598.6331652024854        548.4964007068107        539.8243564659349        559.8841607179106        564.1008129254766        558.4036217751019        554.8338270480976        537.5170909604992        544.1622753451636        635.9824924404014        634.4753189785403        606.3812913157776        658.73503599602          595.0401640989941        597.3039631727017        574.6674131108805        620.5363654153548
18                       652.6293229494677        611.93563639365          632.5356563964302        630.8544208470845        638.3359449727865        666.9092632405095        669.2391784106765        643.5860818594902        631.0046615346683        659.1162802227483        665.2448866449438        656.941943946476         650.1969097426557        620.0724148211157        632.2481535683269        579.4233268278582        570.3753012730059        591.7549838434267        596.4148730072628        590.7969318717214        586.7810846922036        568.1448525845166        575.1621248623567        671.0324991341017        669.0676226708728        639.4707406496586        692.3309881841916        627.2730770154085        629.0765444198115        605.0613312304935        651.324411851568
21                       679.2834042260331        638.2961355084414        659.9621704365926        658.6505691799033        665.9774785598291        695.7678313558037        698.4788667800218        671.6078525215173        658.6280759689689        687.9659060510741        694.4765671653366        686.1765980039338        679.0487988552612        647.6943393484884        660.2639790780196        605.9375561902002        596.5842528027149        619.0661443482095        624.1064630754787        618.5641275547125        614.1639141342886        594.4220998437826        601.7422213002777        700.2628820660177        697.9074100636308        667.0739488568769        720.3333691540455        654.9319799071274        656.3395979106197        631.1730304600051        677.755709691453
24                       703.0760810991551        661.8424212957448        684.4172997395453        683.4252112074211        690.1921762218587        721.0093971713419        724.0489070566688        696.135778128912         682.8293289789203        713.2011266015904        720.0409674354705        711.7443410219341        704.2867328617242        671.8952864955621        684.7876951971683        629.6268619180015        620.018111835276         643.4374556690606        648.8060982994232        643.33344234191          638.6009259684499        617.9174683991135        625.4912189386586        725.8282191379219        723.1362881217933        691.2609421060612        744.8472726317366        679.6237534714695        680.68970177543          654.5451019017124        701.3945613045663
27                       724.8522995010819        683.4092490013275        706.7636610754422        706.0475962571588        712.1074909506154        743.8018339409408        747.1254921311738        718.3147764817234        704.7344350533274        735.988953445806         743.1134820769092        734.8201785972294        727.0773351777289        693.8006977090693        706.963574889688         651.3240098983056        641.4987179076378        665.7205696517653        671.3724850419579        665.9623627577777        660.942927674267         639.4529455790805        647.2417370618712        748.9027897846631        745.9199432564212        713.1557105504921        767.0158280660609        702.1948834753799        702.9662141118204        675.9856976727418        723.0607276861986
