% Model:              brazing.mph
% Version:            COMSOL 5.3.0.223
% Date:               Oct 24 2018, 03:57
% Table:              Table 3 - 
% Time (s)               Temperature (Cp_Al = 810.98, k_Al = 140.91, sigma_Al = 4.2428E7, rho_Al = 2691.6, Cp_inlet = 935.99, k_inlet = 165.59, sigma_inlet = 3.3064E7, rho_inlet = 2317.9, Cp_outlet = 854.63, k_outlet = 145.34, sigma_outlet = 3.964E7, rho_outlet = 2586.3, Cp_outlet_sleeve = 807.58, k_outlet_sleeve = 165.05, sigma_outlet_sleeve = 3.363E7, rho_outlet_sleeve = 2573.5, Cp_inlet_sleeve = 898.53, k_inlet_sleeve = 156.35, sigma_inlet_sleeve = 4.3048E7, rho_inlet_sleeve = 2526) (degC), Point: 55Temperature (Cp_Al = 810.98, k_Al = 140.91, sigma_Al = 4.2428E7, rho_Al = 2691.6, Cp_inlet = 935.99, k_inlet = 165.59, sigma_inlet = 3.3064E7, rho_inlet = 2317.9, Cp_outlet = 854.63, k_outlet = 145.34, sigma_outlet = 3.964E7, rho_outlet = 2586.3, Cp_outlet_sleeve = 807.58, k_outlet_sleeve = 165.05, sigma_outlet_sleeve = 3.363E7, rho_outlet_sleeve = 2573.5, Cp_inlet_sleeve = 898.53, k_inlet_sleeve = 156.35, sigma_inlet_sleeve = 4.3048E7, rho_inlet_sleeve = 2526) (degC), Point: 56Temperature (Cp_Al = 810.98, k_Al = 140.91, sigma_Al = 4.2428E7, rho_Al = 2691.6, Cp_inlet = 935.99, k_inlet = 165.59, sigma_inlet = 3.3064E7, rho_inlet = 2317.9, Cp_outlet = 854.63, k_outlet = 145.34, sigma_outlet = 3.964E7, rho_outlet = 2586.3, Cp_outlet_sleeve = 807.58, k_outlet_sleeve = 165.05, sigma_outlet_sleeve = 3.363E7, rho_outlet_sleeve = 2573.5, Cp_inlet_sleeve = 898.53, k_inlet_sleeve = 156.35, sigma_inlet_sleeve = 4.3048E7, rho_inlet_sleeve = 2526) (degC), Point: 60Temperature (Cp_Al = 810.98, k_Al = 140.91, sigma_Al = 4.2428E7, rho_Al = 2691.6, Cp_inlet = 935.99, k_inlet = 165.59, sigma_inlet = 3.3064E7, rho_inlet = 2317.9, Cp_outlet = 854.63, k_outlet = 145.34, sigma_outlet = 3.964E7, rho_outlet = 2586.3, Cp_outlet_sleeve = 807.58, k_outlet_sleeve = 165.05, sigma_outlet_sleeve = 3.363E7, rho_outlet_sleeve = 2573.5, Cp_inlet_sleeve = 898.53, k_inlet_sleeve = 156.35, sigma_inlet_sleeve = 4.3048E7, rho_inlet_sleeve = 2526) (degC), Point: 69Temperature (Cp_Al = 810.98, k_Al = 140.91, sigma_Al = 4.2428E7, rho_Al = 2691.6, Cp_inlet = 935.99, k_inlet = 165.59, sigma_inlet = 3.3064E7, rho_inlet = 2317.9, Cp_outlet = 854.63, k_outlet = 145.34, sigma_outlet = 3.964E7, rho_outlet = 2586.3, Cp_outlet_sleeve = 807.58, k_outlet_sleeve = 165.05, sigma_outlet_sleeve = 3.363E7, rho_outlet_sleeve = 2573.5, Cp_inlet_sleeve = 898.53, k_inlet_sleeve = 156.35, sigma_inlet_sleeve = 4.3048E7, rho_inlet_sleeve = 2526) (degC), Point: 90Temperature (Cp_Al = 810.98, k_Al = 140.91, sigma_Al = 4.2428E7, rho_Al = 2691.6, Cp_inlet = 935.99, k_inlet = 165.59, sigma_inlet = 3.3064E7, rho_inlet = 2317.9, Cp_outlet = 854.63, k_outlet = 145.34, sigma_outlet = 3.964E7, rho_outlet = 2586.3, Cp_outlet_sleeve = 807.58, k_outlet_sleeve = 165.05, sigma_outlet_sleeve = 3.363E7, rho_outlet_sleeve = 2573.5, Cp_inlet_sleeve = 898.53, k_inlet_sleeve = 156.35, sigma_inlet_sleeve = 4.3048E7, rho_inlet_sleeve = 2526) (degC), Point: 98Temperature (Cp_Al = 810.98, k_Al = 140.91, sigma_Al = 4.2428E7, rho_Al = 2691.6, Cp_inlet = 935.99, k_inlet = 165.59, sigma_inlet = 3.3064E7, rho_inlet = 2317.9, Cp_outlet = 854.63, k_outlet = 145.34, sigma_outlet = 3.964E7, rho_outlet = 2586.3, Cp_outlet_sleeve = 807.58, k_outlet_sleeve = 165.05, sigma_outlet_sleeve = 3.363E7, rho_outlet_sleeve = 2573.5, Cp_inlet_sleeve = 898.53, k_inlet_sleeve = 156.35, sigma_inlet_sleeve = 4.3048E7, rho_inlet_sleeve = 2526) (degC), Point: 102Temperature (Cp_Al = 810.98, k_Al = 140.91, sigma_Al = 4.2428E7, rho_Al = 2691.6, Cp_inlet = 935.99, k_inlet = 165.59, sigma_inlet = 3.3064E7, rho_inlet = 2317.9, Cp_outlet = 854.63, k_outlet = 145.34, sigma_outlet = 3.964E7, rho_outlet = 2586.3, Cp_outlet_sleeve = 807.58, k_outlet_sleeve = 165.05, sigma_outlet_sleeve = 3.363E7, rho_outlet_sleeve = 2573.5, Cp_inlet_sleeve = 898.53, k_inlet_sleeve = 156.35, sigma_inlet_sleeve = 4.3048E7, rho_inlet_sleeve = 2526) (degC), Point: 127Temperature (Cp_Al = 810.98, k_Al = 140.91, sigma_Al = 4.2428E7, rho_Al = 2691.6, Cp_inlet = 935.99, k_inlet = 165.59, sigma_inlet = 3.3064E7, rho_inlet = 2317.9, Cp_outlet = 854.63, k_outlet = 145.34, sigma_outlet = 3.964E7, rho_outlet = 2586.3, Cp_outlet_sleeve = 807.58, k_outlet_sleeve = 165.05, sigma_outlet_sleeve = 3.363E7, rho_outlet_sleeve = 2573.5, Cp_inlet_sleeve = 898.53, k_inlet_sleeve = 156.35, sigma_inlet_sleeve = 4.3048E7, rho_inlet_sleeve = 2526) (degC), Point: 128Temperature (Cp_Al = 810.98, k_Al = 140.91, sigma_Al = 4.2428E7, rho_Al = 2691.6, Cp_inlet = 935.99, k_inlet = 165.59, sigma_inlet = 3.3064E7, rho_inlet = 2317.9, Cp_outlet = 854.63, k_outlet = 145.34, sigma_outlet = 3.964E7, rho_outlet = 2586.3, Cp_outlet_sleeve = 807.58, k_outlet_sleeve = 165.05, sigma_outlet_sleeve = 3.363E7, rho_outlet_sleeve = 2573.5, Cp_inlet_sleeve = 898.53, k_inlet_sleeve = 156.35, sigma_inlet_sleeve = 4.3048E7, rho_inlet_sleeve = 2526) (degC), Point: 134Temperature (Cp_Al = 810.98, k_Al = 140.91, sigma_Al = 4.2428E7, rho_Al = 2691.6, Cp_inlet = 935.99, k_inlet = 165.59, sigma_inlet = 3.3064E7, rho_inlet = 2317.9, Cp_outlet = 854.63, k_outlet = 145.34, sigma_outlet = 3.964E7, rho_outlet = 2586.3, Cp_outlet_sleeve = 807.58, k_outlet_sleeve = 165.05, sigma_outlet_sleeve = 3.363E7, rho_outlet_sleeve = 2573.5, Cp_inlet_sleeve = 898.53, k_inlet_sleeve = 156.35, sigma_inlet_sleeve = 4.3048E7, rho_inlet_sleeve = 2526) (degC), Point: 138Temperature (Cp_Al = 810.98, k_Al = 140.91, sigma_Al = 4.2428E7, rho_Al = 2691.6, Cp_inlet = 935.99, k_inlet = 165.59, sigma_inlet = 3.3064E7, rho_inlet = 2317.9, Cp_outlet = 854.63, k_outlet = 145.34, sigma_outlet = 3.964E7, rho_outlet = 2586.3, Cp_outlet_sleeve = 807.58, k_outlet_sleeve = 165.05, sigma_outlet_sleeve = 3.363E7, rho_outlet_sleeve = 2573.5, Cp_inlet_sleeve = 898.53, k_inlet_sleeve = 156.35, sigma_inlet_sleeve = 4.3048E7, rho_inlet_sleeve = 2526) (degC), Point: 151Temperature (Cp_Al = 810.98, k_Al = 140.91, sigma_Al = 4.2428E7, rho_Al = 2691.6, Cp_inlet = 935.99, k_inlet = 165.59, sigma_inlet = 3.3064E7, rho_inlet = 2317.9, Cp_outlet = 854.63, k_outlet = 145.34, sigma_outlet = 3.964E7, rho_outlet = 2586.3, Cp_outlet_sleeve = 807.58, k_outlet_sleeve = 165.05, sigma_outlet_sleeve = 3.363E7, rho_outlet_sleeve = 2573.5, Cp_inlet_sleeve = 898.53, k_inlet_sleeve = 156.35, sigma_inlet_sleeve = 4.3048E7, rho_inlet_sleeve = 2526) (degC), Point: 154Temperature (Cp_Al = 810.98, k_Al = 140.91, sigma_Al = 4.2428E7, rho_Al = 2691.6, Cp_inlet = 935.99, k_inlet = 165.59, sigma_inlet = 3.3064E7, rho_inlet = 2317.9, Cp_outlet = 854.63, k_outlet = 145.34, sigma_outlet = 3.964E7, rho_outlet = 2586.3, Cp_outlet_sleeve = 807.58, k_outlet_sleeve = 165.05, sigma_outlet_sleeve = 3.363E7, rho_outlet_sleeve = 2573.5, Cp_inlet_sleeve = 898.53, k_inlet_sleeve = 156.35, sigma_inlet_sleeve = 4.3048E7, rho_inlet_sleeve = 2526) (degC), Point: 159Temperature (Cp_Al = 810.98, k_Al = 140.91, sigma_Al = 4.2428E7, rho_Al = 2691.6, Cp_inlet = 935.99, k_inlet = 165.59, sigma_inlet = 3.3064E7, rho_inlet = 2317.9, Cp_outlet = 854.63, k_outlet = 145.34, sigma_outlet = 3.964E7, rho_outlet = 2586.3, Cp_outlet_sleeve = 807.58, k_outlet_sleeve = 165.05, sigma_outlet_sleeve = 3.363E7, rho_outlet_sleeve = 2573.5, Cp_inlet_sleeve = 898.53, k_inlet_sleeve = 156.35, sigma_inlet_sleeve = 4.3048E7, rho_inlet_sleeve = 2526) (degC), Point: 163Temperature (Cp_Al = 810.98, k_Al = 140.91, sigma_Al = 4.2428E7, rho_Al = 2691.6, Cp_inlet = 935.99, k_inlet = 165.59, sigma_inlet = 3.3064E7, rho_inlet = 2317.9, Cp_outlet = 854.63, k_outlet = 145.34, sigma_outlet = 3.964E7, rho_outlet = 2586.3, Cp_outlet_sleeve = 807.58, k_outlet_sleeve = 165.05, sigma_outlet_sleeve = 3.363E7, rho_outlet_sleeve = 2573.5, Cp_inlet_sleeve = 898.53, k_inlet_sleeve = 156.35, sigma_inlet_sleeve = 4.3048E7, rho_inlet_sleeve = 2526) (degC), Point: 167Temperature (Cp_Al = 810.98, k_Al = 140.91, sigma_Al = 4.2428E7, rho_Al = 2691.6, Cp_inlet = 935.99, k_inlet = 165.59, sigma_inlet = 3.3064E7, rho_inlet = 2317.9, Cp_outlet = 854.63, k_outlet = 145.34, sigma_outlet = 3.964E7, rho_outlet = 2586.3, Cp_outlet_sleeve = 807.58, k_outlet_sleeve = 165.05, sigma_outlet_sleeve = 3.363E7, rho_outlet_sleeve = 2573.5, Cp_inlet_sleeve = 898.53, k_inlet_sleeve = 156.35, sigma_inlet_sleeve = 4.3048E7, rho_inlet_sleeve = 2526) (degC), Point: 168Temperature (Cp_Al = 810.98, k_Al = 140.91, sigma_Al = 4.2428E7, rho_Al = 2691.6, Cp_inlet = 935.99, k_inlet = 165.59, sigma_inlet = 3.3064E7, rho_inlet = 2317.9, Cp_outlet = 854.63, k_outlet = 145.34, sigma_outlet = 3.964E7, rho_outlet = 2586.3, Cp_outlet_sleeve = 807.58, k_outlet_sleeve = 165.05, sigma_outlet_sleeve = 3.363E7, rho_outlet_sleeve = 2573.5, Cp_inlet_sleeve = 898.53, k_inlet_sleeve = 156.35, sigma_inlet_sleeve = 4.3048E7, rho_inlet_sleeve = 2526) (degC), Point: 172Temperature (Cp_Al = 810.98, k_Al = 140.91, sigma_Al = 4.2428E7, rho_Al = 2691.6, Cp_inlet = 935.99, k_inlet = 165.59, sigma_inlet = 3.3064E7, rho_inlet = 2317.9, Cp_outlet = 854.63, k_outlet = 145.34, sigma_outlet = 3.964E7, rho_outlet = 2586.3, Cp_outlet_sleeve = 807.58, k_outlet_sleeve = 165.05, sigma_outlet_sleeve = 3.363E7, rho_outlet_sleeve = 2573.5, Cp_inlet_sleeve = 898.53, k_inlet_sleeve = 156.35, sigma_inlet_sleeve = 4.3048E7, rho_inlet_sleeve = 2526) (degC), Point: 181Temperature (Cp_Al = 810.98, k_Al = 140.91, sigma_Al = 4.2428E7, rho_Al = 2691.6, Cp_inlet = 935.99, k_inlet = 165.59, sigma_inlet = 3.3064E7, rho_inlet = 2317.9, Cp_outlet = 854.63, k_outlet = 145.34, sigma_outlet = 3.964E7, rho_outlet = 2586.3, Cp_outlet_sleeve = 807.58, k_outlet_sleeve = 165.05, sigma_outlet_sleeve = 3.363E7, rho_outlet_sleeve = 2573.5, Cp_inlet_sleeve = 898.53, k_inlet_sleeve = 156.35, sigma_inlet_sleeve = 4.3048E7, rho_inlet_sleeve = 2526) (degC), Point: 201Temperature (Cp_Al = 810.98, k_Al = 140.91, sigma_Al = 4.2428E7, rho_Al = 2691.6, Cp_inlet = 935.99, k_inlet = 165.59, sigma_inlet = 3.3064E7, rho_inlet = 2317.9, Cp_outlet = 854.63, k_outlet = 145.34, sigma_outlet = 3.964E7, rho_outlet = 2586.3, Cp_outlet_sleeve = 807.58, k_outlet_sleeve = 165.05, sigma_outlet_sleeve = 3.363E7, rho_outlet_sleeve = 2573.5, Cp_inlet_sleeve = 898.53, k_inlet_sleeve = 156.35, sigma_inlet_sleeve = 4.3048E7, rho_inlet_sleeve = 2526) (degC), Point: 210Temperature (Cp_Al = 810.98, k_Al = 140.91, sigma_Al = 4.2428E7, rho_Al = 2691.6, Cp_inlet = 935.99, k_inlet = 165.59, sigma_inlet = 3.3064E7, rho_inlet = 2317.9, Cp_outlet = 854.63, k_outlet = 145.34, sigma_outlet = 3.964E7, rho_outlet = 2586.3, Cp_outlet_sleeve = 807.58, k_outlet_sleeve = 165.05, sigma_outlet_sleeve = 3.363E7, rho_outlet_sleeve = 2573.5, Cp_inlet_sleeve = 898.53, k_inlet_sleeve = 156.35, sigma_inlet_sleeve = 4.3048E7, rho_inlet_sleeve = 2526) (degC), Point: 213Temperature (Cp_Al = 810.98, k_Al = 140.91, sigma_Al = 4.2428E7, rho_Al = 2691.6, Cp_inlet = 935.99, k_inlet = 165.59, sigma_inlet = 3.3064E7, rho_inlet = 2317.9, Cp_outlet = 854.63, k_outlet = 145.34, sigma_outlet = 3.964E7, rho_outlet = 2586.3, Cp_outlet_sleeve = 807.58, k_outlet_sleeve = 165.05, sigma_outlet_sleeve = 3.363E7, rho_outlet_sleeve = 2573.5, Cp_inlet_sleeve = 898.53, k_inlet_sleeve = 156.35, sigma_inlet_sleeve = 4.3048E7, rho_inlet_sleeve = 2526) (degC), Point: 215Temperature (Cp_Al = 810.98, k_Al = 140.91, sigma_Al = 4.2428E7, rho_Al = 2691.6, Cp_inlet = 935.99, k_inlet = 165.59, sigma_inlet = 3.3064E7, rho_inlet = 2317.9, Cp_outlet = 854.63, k_outlet = 145.34, sigma_outlet = 3.964E7, rho_outlet = 2586.3, Cp_outlet_sleeve = 807.58, k_outlet_sleeve = 165.05, sigma_outlet_sleeve = 3.363E7, rho_outlet_sleeve = 2573.5, Cp_inlet_sleeve = 898.53, k_inlet_sleeve = 156.35, sigma_inlet_sleeve = 4.3048E7, rho_inlet_sleeve = 2526) (degC), Point: 229Temperature (Cp_Al = 810.98, k_Al = 140.91, sigma_Al = 4.2428E7, rho_Al = 2691.6, Cp_inlet = 935.99, k_inlet = 165.59, sigma_inlet = 3.3064E7, rho_inlet = 2317.9, Cp_outlet = 854.63, k_outlet = 145.34, sigma_outlet = 3.964E7, rho_outlet = 2586.3, Cp_outlet_sleeve = 807.58, k_outlet_sleeve = 165.05, sigma_outlet_sleeve = 3.363E7, rho_outlet_sleeve = 2573.5, Cp_inlet_sleeve = 898.53, k_inlet_sleeve = 156.35, sigma_inlet_sleeve = 4.3048E7, rho_inlet_sleeve = 2526) (degC), Point: 232Temperature (Cp_Al = 810.98, k_Al = 140.91, sigma_Al = 4.2428E7, rho_Al = 2691.6, Cp_inlet = 935.99, k_inlet = 165.59, sigma_inlet = 3.3064E7, rho_inlet = 2317.9, Cp_outlet = 854.63, k_outlet = 145.34, sigma_outlet = 3.964E7, rho_outlet = 2586.3, Cp_outlet_sleeve = 807.58, k_outlet_sleeve = 165.05, sigma_outlet_sleeve = 3.363E7, rho_outlet_sleeve = 2573.5, Cp_inlet_sleeve = 898.53, k_inlet_sleeve = 156.35, sigma_inlet_sleeve = 4.3048E7, rho_inlet_sleeve = 2526) (degC), Point: 239Temperature (Cp_Al = 810.98, k_Al = 140.91, sigma_Al = 4.2428E7, rho_Al = 2691.6, Cp_inlet = 935.99, k_inlet = 165.59, sigma_inlet = 3.3064E7, rho_inlet = 2317.9, Cp_outlet = 854.63, k_outlet = 145.34, sigma_outlet = 3.964E7, rho_outlet = 2586.3, Cp_outlet_sleeve = 807.58, k_outlet_sleeve = 165.05, sigma_outlet_sleeve = 3.363E7, rho_outlet_sleeve = 2573.5, Cp_inlet_sleeve = 898.53, k_inlet_sleeve = 156.35, sigma_inlet_sleeve = 4.3048E7, rho_inlet_sleeve = 2526) (degC), Point: 252Temperature (Cp_Al = 810.98, k_Al = 140.91, sigma_Al = 4.2428E7, rho_Al = 2691.6, Cp_inlet = 935.99, k_inlet = 165.59, sigma_inlet = 3.3064E7, rho_inlet = 2317.9, Cp_outlet = 854.63, k_outlet = 145.34, sigma_outlet = 3.964E7, rho_outlet = 2586.3, Cp_outlet_sleeve = 807.58, k_outlet_sleeve = 165.05, sigma_outlet_sleeve = 3.363E7, rho_outlet_sleeve = 2573.5, Cp_inlet_sleeve = 898.53, k_inlet_sleeve = 156.35, sigma_inlet_sleeve = 4.3048E7, rho_inlet_sleeve = 2526) (degC), Point: 261Temperature (Cp_Al = 810.98, k_Al = 140.91, sigma_Al = 4.2428E7, rho_Al = 2691.6, Cp_inlet = 935.99, k_inlet = 165.59, sigma_inlet = 3.3064E7, rho_inlet = 2317.9, Cp_outlet = 854.63, k_outlet = 145.34, sigma_outlet = 3.964E7, rho_outlet = 2586.3, Cp_outlet_sleeve = 807.58, k_outlet_sleeve = 165.05, sigma_outlet_sleeve = 3.363E7, rho_outlet_sleeve = 2573.5, Cp_inlet_sleeve = 898.53, k_inlet_sleeve = 156.35, sigma_inlet_sleeve = 4.3048E7, rho_inlet_sleeve = 2526) (degC), Point: 270Temperature (Cp_Al = 810.98, k_Al = 140.91, sigma_Al = 4.2428E7, rho_Al = 2691.6, Cp_inlet = 935.99, k_inlet = 165.59, sigma_inlet = 3.3064E7, rho_inlet = 2317.9, Cp_outlet = 854.63, k_outlet = 145.34, sigma_outlet = 3.964E7, rho_outlet = 2586.3, Cp_outlet_sleeve = 807.58, k_outlet_sleeve = 165.05, sigma_outlet_sleeve = 3.363E7, rho_outlet_sleeve = 2573.5, Cp_inlet_sleeve = 898.53, k_inlet_sleeve = 156.35, sigma_inlet_sleeve = 4.3048E7, rho_inlet_sleeve = 2526) (degC), Point: 273Temperature (Cp_Al = 810.98, k_Al = 140.91, sigma_Al = 4.2428E7, rho_Al = 2691.6, Cp_inlet = 935.99, k_inlet = 165.59, sigma_inlet = 3.3064E7, rho_inlet = 2317.9, Cp_outlet = 854.63, k_outlet = 145.34, sigma_outlet = 3.964E7, rho_outlet = 2586.3, Cp_outlet_sleeve = 807.58, k_outlet_sleeve = 165.05, sigma_outlet_sleeve = 3.363E7, rho_outlet_sleeve = 2573.5, Cp_inlet_sleeve = 898.53, k_inlet_sleeve = 156.35, sigma_inlet_sleeve = 4.3048E7, rho_inlet_sleeve = 2526) (degC), Point: 275
0                        21.638034354687193       21.013435120662336       21.131903681812787       21.008528432826836       21.014257358097723       21.108188943272864       21.008928488078084       21.028122778851184       21.001475269983757       21.02460872086118        21.001252695675987       21.00065044273026        21.00949225767664        21.000111753231124       21.008338692202415       21.02101151069104        21.00005447643656        21.011579030506482       21.000727832968266       21.0002974122674         21.001781957036542       21.00017589598724        21.000264692365135       21.00891279693724        21.118671217861674       21.013677400261884       21.59007921768142        21.0084079209214         21.144771297481043       21.016496124437367       21.70973888798011
3                        312.49607375192693       279.1821351509359        288.6144946215071        283.9302122849904        267.6451195478704        280.2460002709531        278.5151883563791        266.99983072402074       262.0855787688647        272.97691325054325       275.00287207589247       267.0747703642422        264.41507369538954       251.8590516493316        256.76132687022323       245.4670630575322        240.98744763588388       249.71837781654017       251.0923612444043        244.8018924151387        244.02266847881333       237.76545214198387       240.50115082614786       280.4490282866583        282.62319792827805       269.16497128077117       303.09158122224403       285.49927932375056       290.41361886533707       278.2681236292659        316.46285753323457
6                        438.354104661067         403.51810386160787       416.8165462149791        412.88751789851233       391.62939503181667       409.0892888045372        408.3884201769191        392.78258168465334       385.92065442778505       401.7238742788726        404.7852819286177        396.83330530383046       393.141201098569         375.6636295374029        382.504433943811         369.9922485315843        363.9145139635194        376.7108736586615        378.87993641658113       372.55581301640734       371.0462243144523        360.915695383493         365.188991414239         410.1261383306896        411.24342305968025       392.81849332305853       428.7107776127957        411.9798223824881        416.11967145152084       399.8521064940833        439.68752778332214
9                        512.382162388203         476.6427265220783        492.68091914899287       489.5067022849082        461.77453429967227       482.4456455682413        482.6334236939613        463.9303419612654        455.97312588027694       475.024552438559         478.97854254890683       471.01917393911594       466.4352079879345        445.70523426973193       453.6321015983548        443.10756479867996       436.0785324657469        451.745664216206         454.6990356831524        448.5040521959403        446.24399425464526       433.34409419684255       438.5358672016645        484.268753660142         484.47394673313386       462.76592085178027       499.7629767799724        487.100303717922         490.4589636107926        471.26149117045645       512.0802842681512
12                       563.3023226504941        526.9556282169921        544.9910207818331        542.4315121978768        509.1247388824511        532.018345993176         532.8829167736278        511.9212816284138        503.26345673416404       524.5623415288427        529.1958534761469        521.2357333763865        515.9721778635859        492.9913918694872        501.6121252331584        493.48506742494055       485.8169941410142        503.5709438784962        507.16081496291133       501.04986105663625       498.1688120385014        483.23387838550514       489.0458584738476        534.4597036887039        533.9701716076707        509.9911112623578        547.6945241608306        539.1665724904028        541.8815009565485        520.5393809430643        562.0214641782976
15                       601.7130017129059        564.9274161451709        584.486942557439         582.4273240366289        544.5858389375092        569.1040156874491        570.4914502994047        547.8278541449853        538.6843260961473        561.6251857176466        566.7834927354254        558.8255007054635        553.0367925317282        528.4112758745241        537.512661381891         531.552511566152         523.4237270728246        542.7652198563665        546.8714645017457        540.8419169651038        537.4501038579834        520.9518075349574        527.2137718934113        572.0337057258694        571.0075022496638        545.3699584079882        583.5626863261255        578.663375963065         580.8502473942035        557.8668266328128        599.8287632460056
18                       632.341547147185         595.2250079567394        615.9895595367258        614.3452079673592        572.7904143502697        598.54616183649          600.3503814999308        576.3574451996228        566.8614795717174        591.0522888734405        596.628756996563         588.6740803193927        582.466717730636         556.5889174456001        566.0388140393686        561.958445241096         553.4833548681523        574.0760728073919        578.6104286133403        572.660274616319         568.8406363769766        551.100049744156         557.702258035836         601.8727401021026        600.4188641602102        573.5195705193621        612.0669609180393        610.2966807016168        612.0421952217151        587.7593818506533        630.0828476796373
21                       658.4770382619272        621.0950570080377        642.8568701949341        641.5666124781071        596.9082201724489        623.663738052069         625.8143357722277        600.7309815748055        590.9597666743261        616.1595234847282        622.0833735973124        614.1322938495098        607.5770277870839        580.6882554807402        590.4101926811476        587.9402977263605        579.1884436391501        600.8136164614083        605.7123986562112        599.8370692382645        595.6509758472735        576.8798125266891        583.755068945699         627.3250591415365        625.5159278462033        597.5989142119583        636.4229216844102        637.350109682763         638.7182550149492        613.3610783470345        655.9735370425827
24                       681.7748572539452        644.1715594519426        666.7822250648354        665.7989301283571        618.4951757226614        646.0894794698476        648.5360029661656        622.529142404176         612.5324284474107        638.5779703484342        644.7984879867302        636.8509364737231        629.9984989585818        602.262171680844         612.2068939796042        611.1275966913711        602.1458192821627        624.6473887959959        629.8615844799757        624.0547065453777        619.5502680360274        599.9013888429353        607.0040912455767        650.0401000230236        647.9276367601136        619.1581535760163        658.2084633217222        661.4819980863099        662.5228603370871        636.2534360647455        679.1056836695997
27                       703.1263760863608        665.3346116635764        688.6782878863428        687.9631061810601        638.3781210427213        666.6909705595231        669.3940290462403        642.5913117797799        632.4046992419734        659.1742328093629        665.6518379523468        657.707601764704         650.5976102058753        622.1357452755364        632.2680246319765        632.3972262610266        623.220304742011         646.4768216356125        651.9661094821787        646.2208365575439        641.4381398418318        621.0316401226052        628.3277081976155        670.8946521122674        668.5193897476634        639.0207381643405        678.2613700891206        683.5866870057336        684.3419060542776        657.2871341457627        700.3425127631783
