% Model:              brazing.mph
% Version:            COMSOL 5.3.0.223
% Date:               Oct 24 2018, 05:17
% Table:              Table 3 - 
% Time (s)               Temperature (Cp_Al = 786.47, k_Al = 130.06, sigma_Al = 4.6381E7, rho_Al = 2689.9, Cp_inlet = 892.56, k_inlet = 169.85, sigma_inlet = 3.0729E7, rho_inlet = 2183.9, Cp_outlet = 875.07, k_outlet = 133.45, sigma_outlet = 4.3078E7, rho_outlet = 2401.3, Cp_outlet_sleeve = 713.04, k_outlet_sleeve = 162.72, sigma_outlet_sleeve = 3.2859E7, rho_outlet_sleeve = 2703.3, Cp_inlet_sleeve = 874.85, k_inlet_sleeve = 149.89, sigma_inlet_sleeve = 4.654E7, rho_inlet_sleeve = 2584.6) (degC), Point: 55Temperature (Cp_Al = 786.47, k_Al = 130.06, sigma_Al = 4.6381E7, rho_Al = 2689.9, Cp_inlet = 892.56, k_inlet = 169.85, sigma_inlet = 3.0729E7, rho_inlet = 2183.9, Cp_outlet = 875.07, k_outlet = 133.45, sigma_outlet = 4.3078E7, rho_outlet = 2401.3, Cp_outlet_sleeve = 713.04, k_outlet_sleeve = 162.72, sigma_outlet_sleeve = 3.2859E7, rho_outlet_sleeve = 2703.3, Cp_inlet_sleeve = 874.85, k_inlet_sleeve = 149.89, sigma_inlet_sleeve = 4.654E7, rho_inlet_sleeve = 2584.6) (degC), Point: 56Temperature (Cp_Al = 786.47, k_Al = 130.06, sigma_Al = 4.6381E7, rho_Al = 2689.9, Cp_inlet = 892.56, k_inlet = 169.85, sigma_inlet = 3.0729E7, rho_inlet = 2183.9, Cp_outlet = 875.07, k_outlet = 133.45, sigma_outlet = 4.3078E7, rho_outlet = 2401.3, Cp_outlet_sleeve = 713.04, k_outlet_sleeve = 162.72, sigma_outlet_sleeve = 3.2859E7, rho_outlet_sleeve = 2703.3, Cp_inlet_sleeve = 874.85, k_inlet_sleeve = 149.89, sigma_inlet_sleeve = 4.654E7, rho_inlet_sleeve = 2584.6) (degC), Point: 60Temperature (Cp_Al = 786.47, k_Al = 130.06, sigma_Al = 4.6381E7, rho_Al = 2689.9, Cp_inlet = 892.56, k_inlet = 169.85, sigma_inlet = 3.0729E7, rho_inlet = 2183.9, Cp_outlet = 875.07, k_outlet = 133.45, sigma_outlet = 4.3078E7, rho_outlet = 2401.3, Cp_outlet_sleeve = 713.04, k_outlet_sleeve = 162.72, sigma_outlet_sleeve = 3.2859E7, rho_outlet_sleeve = 2703.3, Cp_inlet_sleeve = 874.85, k_inlet_sleeve = 149.89, sigma_inlet_sleeve = 4.654E7, rho_inlet_sleeve = 2584.6) (degC), Point: 69Temperature (Cp_Al = 786.47, k_Al = 130.06, sigma_Al = 4.6381E7, rho_Al = 2689.9, Cp_inlet = 892.56, k_inlet = 169.85, sigma_inlet = 3.0729E7, rho_inlet = 2183.9, Cp_outlet = 875.07, k_outlet = 133.45, sigma_outlet = 4.3078E7, rho_outlet = 2401.3, Cp_outlet_sleeve = 713.04, k_outlet_sleeve = 162.72, sigma_outlet_sleeve = 3.2859E7, rho_outlet_sleeve = 2703.3, Cp_inlet_sleeve = 874.85, k_inlet_sleeve = 149.89, sigma_inlet_sleeve = 4.654E7, rho_inlet_sleeve = 2584.6) (degC), Point: 90Temperature (Cp_Al = 786.47, k_Al = 130.06, sigma_Al = 4.6381E7, rho_Al = 2689.9, Cp_inlet = 892.56, k_inlet = 169.85, sigma_inlet = 3.0729E7, rho_inlet = 2183.9, Cp_outlet = 875.07, k_outlet = 133.45, sigma_outlet = 4.3078E7, rho_outlet = 2401.3, Cp_outlet_sleeve = 713.04, k_outlet_sleeve = 162.72, sigma_outlet_sleeve = 3.2859E7, rho_outlet_sleeve = 2703.3, Cp_inlet_sleeve = 874.85, k_inlet_sleeve = 149.89, sigma_inlet_sleeve = 4.654E7, rho_inlet_sleeve = 2584.6) (degC), Point: 98Temperature (Cp_Al = 786.47, k_Al = 130.06, sigma_Al = 4.6381E7, rho_Al = 2689.9, Cp_inlet = 892.56, k_inlet = 169.85, sigma_inlet = 3.0729E7, rho_inlet = 2183.9, Cp_outlet = 875.07, k_outlet = 133.45, sigma_outlet = 4.3078E7, rho_outlet = 2401.3, Cp_outlet_sleeve = 713.04, k_outlet_sleeve = 162.72, sigma_outlet_sleeve = 3.2859E7, rho_outlet_sleeve = 2703.3, Cp_inlet_sleeve = 874.85, k_inlet_sleeve = 149.89, sigma_inlet_sleeve = 4.654E7, rho_inlet_sleeve = 2584.6) (degC), Point: 102Temperature (Cp_Al = 786.47, k_Al = 130.06, sigma_Al = 4.6381E7, rho_Al = 2689.9, Cp_inlet = 892.56, k_inlet = 169.85, sigma_inlet = 3.0729E7, rho_inlet = 2183.9, Cp_outlet = 875.07, k_outlet = 133.45, sigma_outlet = 4.3078E7, rho_outlet = 2401.3, Cp_outlet_sleeve = 713.04, k_outlet_sleeve = 162.72, sigma_outlet_sleeve = 3.2859E7, rho_outlet_sleeve = 2703.3, Cp_inlet_sleeve = 874.85, k_inlet_sleeve = 149.89, sigma_inlet_sleeve = 4.654E7, rho_inlet_sleeve = 2584.6) (degC), Point: 127Temperature (Cp_Al = 786.47, k_Al = 130.06, sigma_Al = 4.6381E7, rho_Al = 2689.9, Cp_inlet = 892.56, k_inlet = 169.85, sigma_inlet = 3.0729E7, rho_inlet = 2183.9, Cp_outlet = 875.07, k_outlet = 133.45, sigma_outlet = 4.3078E7, rho_outlet = 2401.3, Cp_outlet_sleeve = 713.04, k_outlet_sleeve = 162.72, sigma_outlet_sleeve = 3.2859E7, rho_outlet_sleeve = 2703.3, Cp_inlet_sleeve = 874.85, k_inlet_sleeve = 149.89, sigma_inlet_sleeve = 4.654E7, rho_inlet_sleeve = 2584.6) (degC), Point: 128Temperature (Cp_Al = 786.47, k_Al = 130.06, sigma_Al = 4.6381E7, rho_Al = 2689.9, Cp_inlet = 892.56, k_inlet = 169.85, sigma_inlet = 3.0729E7, rho_inlet = 2183.9, Cp_outlet = 875.07, k_outlet = 133.45, sigma_outlet = 4.3078E7, rho_outlet = 2401.3, Cp_outlet_sleeve = 713.04, k_outlet_sleeve = 162.72, sigma_outlet_sleeve = 3.2859E7, rho_outlet_sleeve = 2703.3, Cp_inlet_sleeve = 874.85, k_inlet_sleeve = 149.89, sigma_inlet_sleeve = 4.654E7, rho_inlet_sleeve = 2584.6) (degC), Point: 134Temperature (Cp_Al = 786.47, k_Al = 130.06, sigma_Al = 4.6381E7, rho_Al = 2689.9, Cp_inlet = 892.56, k_inlet = 169.85, sigma_inlet = 3.0729E7, rho_inlet = 2183.9, Cp_outlet = 875.07, k_outlet = 133.45, sigma_outlet = 4.3078E7, rho_outlet = 2401.3, Cp_outlet_sleeve = 713.04, k_outlet_sleeve = 162.72, sigma_outlet_sleeve = 3.2859E7, rho_outlet_sleeve = 2703.3, Cp_inlet_sleeve = 874.85, k_inlet_sleeve = 149.89, sigma_inlet_sleeve = 4.654E7, rho_inlet_sleeve = 2584.6) (degC), Point: 138Temperature (Cp_Al = 786.47, k_Al = 130.06, sigma_Al = 4.6381E7, rho_Al = 2689.9, Cp_inlet = 892.56, k_inlet = 169.85, sigma_inlet = 3.0729E7, rho_inlet = 2183.9, Cp_outlet = 875.07, k_outlet = 133.45, sigma_outlet = 4.3078E7, rho_outlet = 2401.3, Cp_outlet_sleeve = 713.04, k_outlet_sleeve = 162.72, sigma_outlet_sleeve = 3.2859E7, rho_outlet_sleeve = 2703.3, Cp_inlet_sleeve = 874.85, k_inlet_sleeve = 149.89, sigma_inlet_sleeve = 4.654E7, rho_inlet_sleeve = 2584.6) (degC), Point: 151Temperature (Cp_Al = 786.47, k_Al = 130.06, sigma_Al = 4.6381E7, rho_Al = 2689.9, Cp_inlet = 892.56, k_inlet = 169.85, sigma_inlet = 3.0729E7, rho_inlet = 2183.9, Cp_outlet = 875.07, k_outlet = 133.45, sigma_outlet = 4.3078E7, rho_outlet = 2401.3, Cp_outlet_sleeve = 713.04, k_outlet_sleeve = 162.72, sigma_outlet_sleeve = 3.2859E7, rho_outlet_sleeve = 2703.3, Cp_inlet_sleeve = 874.85, k_inlet_sleeve = 149.89, sigma_inlet_sleeve = 4.654E7, rho_inlet_sleeve = 2584.6) (degC), Point: 154Temperature (Cp_Al = 786.47, k_Al = 130.06, sigma_Al = 4.6381E7, rho_Al = 2689.9, Cp_inlet = 892.56, k_inlet = 169.85, sigma_inlet = 3.0729E7, rho_inlet = 2183.9, Cp_outlet = 875.07, k_outlet = 133.45, sigma_outlet = 4.3078E7, rho_outlet = 2401.3, Cp_outlet_sleeve = 713.04, k_outlet_sleeve = 162.72, sigma_outlet_sleeve = 3.2859E7, rho_outlet_sleeve = 2703.3, Cp_inlet_sleeve = 874.85, k_inlet_sleeve = 149.89, sigma_inlet_sleeve = 4.654E7, rho_inlet_sleeve = 2584.6) (degC), Point: 159Temperature (Cp_Al = 786.47, k_Al = 130.06, sigma_Al = 4.6381E7, rho_Al = 2689.9, Cp_inlet = 892.56, k_inlet = 169.85, sigma_inlet = 3.0729E7, rho_inlet = 2183.9, Cp_outlet = 875.07, k_outlet = 133.45, sigma_outlet = 4.3078E7, rho_outlet = 2401.3, Cp_outlet_sleeve = 713.04, k_outlet_sleeve = 162.72, sigma_outlet_sleeve = 3.2859E7, rho_outlet_sleeve = 2703.3, Cp_inlet_sleeve = 874.85, k_inlet_sleeve = 149.89, sigma_inlet_sleeve = 4.654E7, rho_inlet_sleeve = 2584.6) (degC), Point: 163Temperature (Cp_Al = 786.47, k_Al = 130.06, sigma_Al = 4.6381E7, rho_Al = 2689.9, Cp_inlet = 892.56, k_inlet = 169.85, sigma_inlet = 3.0729E7, rho_inlet = 2183.9, Cp_outlet = 875.07, k_outlet = 133.45, sigma_outlet = 4.3078E7, rho_outlet = 2401.3, Cp_outlet_sleeve = 713.04, k_outlet_sleeve = 162.72, sigma_outlet_sleeve = 3.2859E7, rho_outlet_sleeve = 2703.3, Cp_inlet_sleeve = 874.85, k_inlet_sleeve = 149.89, sigma_inlet_sleeve = 4.654E7, rho_inlet_sleeve = 2584.6) (degC), Point: 167Temperature (Cp_Al = 786.47, k_Al = 130.06, sigma_Al = 4.6381E7, rho_Al = 2689.9, Cp_inlet = 892.56, k_inlet = 169.85, sigma_inlet = 3.0729E7, rho_inlet = 2183.9, Cp_outlet = 875.07, k_outlet = 133.45, sigma_outlet = 4.3078E7, rho_outlet = 2401.3, Cp_outlet_sleeve = 713.04, k_outlet_sleeve = 162.72, sigma_outlet_sleeve = 3.2859E7, rho_outlet_sleeve = 2703.3, Cp_inlet_sleeve = 874.85, k_inlet_sleeve = 149.89, sigma_inlet_sleeve = 4.654E7, rho_inlet_sleeve = 2584.6) (degC), Point: 168Temperature (Cp_Al = 786.47, k_Al = 130.06, sigma_Al = 4.6381E7, rho_Al = 2689.9, Cp_inlet = 892.56, k_inlet = 169.85, sigma_inlet = 3.0729E7, rho_inlet = 2183.9, Cp_outlet = 875.07, k_outlet = 133.45, sigma_outlet = 4.3078E7, rho_outlet = 2401.3, Cp_outlet_sleeve = 713.04, k_outlet_sleeve = 162.72, sigma_outlet_sleeve = 3.2859E7, rho_outlet_sleeve = 2703.3, Cp_inlet_sleeve = 874.85, k_inlet_sleeve = 149.89, sigma_inlet_sleeve = 4.654E7, rho_inlet_sleeve = 2584.6) (degC), Point: 172Temperature (Cp_Al = 786.47, k_Al = 130.06, sigma_Al = 4.6381E7, rho_Al = 2689.9, Cp_inlet = 892.56, k_inlet = 169.85, sigma_inlet = 3.0729E7, rho_inlet = 2183.9, Cp_outlet = 875.07, k_outlet = 133.45, sigma_outlet = 4.3078E7, rho_outlet = 2401.3, Cp_outlet_sleeve = 713.04, k_outlet_sleeve = 162.72, sigma_outlet_sleeve = 3.2859E7, rho_outlet_sleeve = 2703.3, Cp_inlet_sleeve = 874.85, k_inlet_sleeve = 149.89, sigma_inlet_sleeve = 4.654E7, rho_inlet_sleeve = 2584.6) (degC), Point: 181Temperature (Cp_Al = 786.47, k_Al = 130.06, sigma_Al = 4.6381E7, rho_Al = 2689.9, Cp_inlet = 892.56, k_inlet = 169.85, sigma_inlet = 3.0729E7, rho_inlet = 2183.9, Cp_outlet = 875.07, k_outlet = 133.45, sigma_outlet = 4.3078E7, rho_outlet = 2401.3, Cp_outlet_sleeve = 713.04, k_outlet_sleeve = 162.72, sigma_outlet_sleeve = 3.2859E7, rho_outlet_sleeve = 2703.3, Cp_inlet_sleeve = 874.85, k_inlet_sleeve = 149.89, sigma_inlet_sleeve = 4.654E7, rho_inlet_sleeve = 2584.6) (degC), Point: 201Temperature (Cp_Al = 786.47, k_Al = 130.06, sigma_Al = 4.6381E7, rho_Al = 2689.9, Cp_inlet = 892.56, k_inlet = 169.85, sigma_inlet = 3.0729E7, rho_inlet = 2183.9, Cp_outlet = 875.07, k_outlet = 133.45, sigma_outlet = 4.3078E7, rho_outlet = 2401.3, Cp_outlet_sleeve = 713.04, k_outlet_sleeve = 162.72, sigma_outlet_sleeve = 3.2859E7, rho_outlet_sleeve = 2703.3, Cp_inlet_sleeve = 874.85, k_inlet_sleeve = 149.89, sigma_inlet_sleeve = 4.654E7, rho_inlet_sleeve = 2584.6) (degC), Point: 210Temperature (Cp_Al = 786.47, k_Al = 130.06, sigma_Al = 4.6381E7, rho_Al = 2689.9, Cp_inlet = 892.56, k_inlet = 169.85, sigma_inlet = 3.0729E7, rho_inlet = 2183.9, Cp_outlet = 875.07, k_outlet = 133.45, sigma_outlet = 4.3078E7, rho_outlet = 2401.3, Cp_outlet_sleeve = 713.04, k_outlet_sleeve = 162.72, sigma_outlet_sleeve = 3.2859E7, rho_outlet_sleeve = 2703.3, Cp_inlet_sleeve = 874.85, k_inlet_sleeve = 149.89, sigma_inlet_sleeve = 4.654E7, rho_inlet_sleeve = 2584.6) (degC), Point: 213Temperature (Cp_Al = 786.47, k_Al = 130.06, sigma_Al = 4.6381E7, rho_Al = 2689.9, Cp_inlet = 892.56, k_inlet = 169.85, sigma_inlet = 3.0729E7, rho_inlet = 2183.9, Cp_outlet = 875.07, k_outlet = 133.45, sigma_outlet = 4.3078E7, rho_outlet = 2401.3, Cp_outlet_sleeve = 713.04, k_outlet_sleeve = 162.72, sigma_outlet_sleeve = 3.2859E7, rho_outlet_sleeve = 2703.3, Cp_inlet_sleeve = 874.85, k_inlet_sleeve = 149.89, sigma_inlet_sleeve = 4.654E7, rho_inlet_sleeve = 2584.6) (degC), Point: 215Temperature (Cp_Al = 786.47, k_Al = 130.06, sigma_Al = 4.6381E7, rho_Al = 2689.9, Cp_inlet = 892.56, k_inlet = 169.85, sigma_inlet = 3.0729E7, rho_inlet = 2183.9, Cp_outlet = 875.07, k_outlet = 133.45, sigma_outlet = 4.3078E7, rho_outlet = 2401.3, Cp_outlet_sleeve = 713.04, k_outlet_sleeve = 162.72, sigma_outlet_sleeve = 3.2859E7, rho_outlet_sleeve = 2703.3, Cp_inlet_sleeve = 874.85, k_inlet_sleeve = 149.89, sigma_inlet_sleeve = 4.654E7, rho_inlet_sleeve = 2584.6) (degC), Point: 229Temperature (Cp_Al = 786.47, k_Al = 130.06, sigma_Al = 4.6381E7, rho_Al = 2689.9, Cp_inlet = 892.56, k_inlet = 169.85, sigma_inlet = 3.0729E7, rho_inlet = 2183.9, Cp_outlet = 875.07, k_outlet = 133.45, sigma_outlet = 4.3078E7, rho_outlet = 2401.3, Cp_outlet_sleeve = 713.04, k_outlet_sleeve = 162.72, sigma_outlet_sleeve = 3.2859E7, rho_outlet_sleeve = 2703.3, Cp_inlet_sleeve = 874.85, k_inlet_sleeve = 149.89, sigma_inlet_sleeve = 4.654E7, rho_inlet_sleeve = 2584.6) (degC), Point: 232Temperature (Cp_Al = 786.47, k_Al = 130.06, sigma_Al = 4.6381E7, rho_Al = 2689.9, Cp_inlet = 892.56, k_inlet = 169.85, sigma_inlet = 3.0729E7, rho_inlet = 2183.9, Cp_outlet = 875.07, k_outlet = 133.45, sigma_outlet = 4.3078E7, rho_outlet = 2401.3, Cp_outlet_sleeve = 713.04, k_outlet_sleeve = 162.72, sigma_outlet_sleeve = 3.2859E7, rho_outlet_sleeve = 2703.3, Cp_inlet_sleeve = 874.85, k_inlet_sleeve = 149.89, sigma_inlet_sleeve = 4.654E7, rho_inlet_sleeve = 2584.6) (degC), Point: 239Temperature (Cp_Al = 786.47, k_Al = 130.06, sigma_Al = 4.6381E7, rho_Al = 2689.9, Cp_inlet = 892.56, k_inlet = 169.85, sigma_inlet = 3.0729E7, rho_inlet = 2183.9, Cp_outlet = 875.07, k_outlet = 133.45, sigma_outlet = 4.3078E7, rho_outlet = 2401.3, Cp_outlet_sleeve = 713.04, k_outlet_sleeve = 162.72, sigma_outlet_sleeve = 3.2859E7, rho_outlet_sleeve = 2703.3, Cp_inlet_sleeve = 874.85, k_inlet_sleeve = 149.89, sigma_inlet_sleeve = 4.654E7, rho_inlet_sleeve = 2584.6) (degC), Point: 252Temperature (Cp_Al = 786.47, k_Al = 130.06, sigma_Al = 4.6381E7, rho_Al = 2689.9, Cp_inlet = 892.56, k_inlet = 169.85, sigma_inlet = 3.0729E7, rho_inlet = 2183.9, Cp_outlet = 875.07, k_outlet = 133.45, sigma_outlet = 4.3078E7, rho_outlet = 2401.3, Cp_outlet_sleeve = 713.04, k_outlet_sleeve = 162.72, sigma_outlet_sleeve = 3.2859E7, rho_outlet_sleeve = 2703.3, Cp_inlet_sleeve = 874.85, k_inlet_sleeve = 149.89, sigma_inlet_sleeve = 4.654E7, rho_inlet_sleeve = 2584.6) (degC), Point: 261Temperature (Cp_Al = 786.47, k_Al = 130.06, sigma_Al = 4.6381E7, rho_Al = 2689.9, Cp_inlet = 892.56, k_inlet = 169.85, sigma_inlet = 3.0729E7, rho_inlet = 2183.9, Cp_outlet = 875.07, k_outlet = 133.45, sigma_outlet = 4.3078E7, rho_outlet = 2401.3, Cp_outlet_sleeve = 713.04, k_outlet_sleeve = 162.72, sigma_outlet_sleeve = 3.2859E7, rho_outlet_sleeve = 2703.3, Cp_inlet_sleeve = 874.85, k_inlet_sleeve = 149.89, sigma_inlet_sleeve = 4.654E7, rho_inlet_sleeve = 2584.6) (degC), Point: 270Temperature (Cp_Al = 786.47, k_Al = 130.06, sigma_Al = 4.6381E7, rho_Al = 2689.9, Cp_inlet = 892.56, k_inlet = 169.85, sigma_inlet = 3.0729E7, rho_inlet = 2183.9, Cp_outlet = 875.07, k_outlet = 133.45, sigma_outlet = 4.3078E7, rho_outlet = 2401.3, Cp_outlet_sleeve = 713.04, k_outlet_sleeve = 162.72, sigma_outlet_sleeve = 3.2859E7, rho_outlet_sleeve = 2703.3, Cp_inlet_sleeve = 874.85, k_inlet_sleeve = 149.89, sigma_inlet_sleeve = 4.654E7, rho_inlet_sleeve = 2584.6) (degC), Point: 273Temperature (Cp_Al = 786.47, k_Al = 130.06, sigma_Al = 4.6381E7, rho_Al = 2689.9, Cp_inlet = 892.56, k_inlet = 169.85, sigma_inlet = 3.0729E7, rho_inlet = 2183.9, Cp_outlet = 875.07, k_outlet = 133.45, sigma_outlet = 4.3078E7, rho_outlet = 2401.3, Cp_outlet_sleeve = 713.04, k_outlet_sleeve = 162.72, sigma_outlet_sleeve = 3.2859E7, rho_outlet_sleeve = 2703.3, Cp_inlet_sleeve = 874.85, k_inlet_sleeve = 149.89, sigma_inlet_sleeve = 4.654E7, rho_inlet_sleeve = 2584.6) (degC), Point: 275
0                        21.67663831858391        21.014611616232003       21.131328575858277       21.008659631868568       21.014191335030375       21.108103496722265       21.009538997505103       21.02952532647322        21.00144634325045        21.024615221826423       21.001327995109307       21.000680211304882       21.00945681516174        21.000111086353286       21.00870503747211        21.02232357072353        21.0000562292214         21.01154077755473        21.000747949875745       21.000309556281195       21.00178477480273        21.000186152938568       21.00028162048386        21.00952231102417        21.11856180831336        21.013583860908398       21.61385072538792        21.00851798141673        21.144113911643103       21.017780439481783       21.752622171805683
3                        325.31144741067203       291.69871936786376       301.1170913678782        296.4839019751988        275.93852228858134       289.637609293457         288.3088807977066        275.6079004170655        270.24097975606026       282.3778035510197        284.8196224038802        277.0104612951769        273.9383078444299        260.1617553239347        265.4247172177169        256.4318797375969        251.83574101971044       260.5397613280571        261.8583341473586        255.51619905370853       254.83510449651396       248.674603809598         251.49781903282428       290.22212841940757       291.9933873718285        277.46370178395716       313.29004366106653       298.0651196577934        302.90484705537244       290.65705134736004       329.2385787292792
6                        455.03511474792765       419.83785970701297       433.36805014205197       429.55186396249985       404.27229337916935       422.68411614880847       422.31881329038606       405.7493761912916        398.42239731877294       415.3273180028847        418.7389655798387        410.91009697997526       406.8711020452645        388.31747386342363       395.53139935752347       384.7048214684803        378.4424589641743        391.4701075136785        393.64766954313507       387.3468355368684        385.8750303531216        375.5957387966754        380.0197452311719        424.0394896099647        424.8201081606006        405.46519052878466       443.27056380324336       428.5055500556542        432.5086574660588        415.88002129275117       456.172198247775
9                        530.7414696148035        494.62306827711916       510.9792225662603        507.9466607344526        477.19552744022155       498.73238030281914       499.21141688185446       479.6795902137213        471.25145820082616       491.3197606786846        495.58014727356647       487.7437498269916        482.8563378964118        461.1340155007649        469.44019398189516       459.4367484274825        452.2025303295329        468.1921795353603        471.183540937344         465.026310426132         462.7756507329634        449.63881673654066       455.0005264533055        500.82948778940477       500.7420828985047        478.1860190896423        517.1030234050635        505.297242660999         508.49011736139005       488.83698247085135       530.1353153848572
12                       582.9547977407445        546.2208045026233        564.6091526320247        562.2022960975603        526.8689218630426        550.605945634679         551.7410546407333        530.006819304074         520.8635211957554        543.1579598615457        548.0774576255386        540.2401878339215        534.6933439780088        510.7405914229337        519.7553784028999        511.0700930710906        503.1866599814268        521.3013800861219        524.9406578390779        518.8677075259358        515.985251772344         500.776498443989         506.7680994385885        553.2997661276597        552.5380728969799        527.7301400253906        567.3687617314997        558.6220113349498        561.1599220776147        539.3210920922431        581.2946801180634
15                       621.9978841801723        584.8256935849339        604.7408429825766        602.8362988326047        563.8855632167398        589.2543112604269        590.9077203149627        567.4816864587295        557.8391991071499        581.7833974796539        587.2233187048679        579.3881072522636        573.3202767081722        547.7142231285346        557.2232084718837        549.7492177041389        541.4046981234134        561.1113994069408        565.2696862427584        559.2754074055974        555.8796369809286        539.1029337987773        545.5449607983347        592.4318208345228        591.1376785758432        564.661972010621         604.8038075151065        598.713645279264         600.7207301327345        577.2337445923655        619.6889161041807
18                       653.2576705726209        615.755169786547         636.8722728376906        635.3824754420286        593.5824856269627        620.2287626994108        622.3067054920516        597.5224696061097        587.5078635895309        612.7425565816264        618.6085261014853        610.7764569169738        604.2819283813535        577.3823535543636        587.2594832082768        580.7692018756018        572.0781362682615        593.0345662812036        597.6206584857869        591.7024588556601        587.8792997554757        569.8617759973923        576.6443711017636        623.8104779538884        622.0804752594487        594.3012023855422        634.817679577518         630.938516431274         632.5044570810941        607.7175599940763        650.5356525587446
21                       679.7787615711093        642.0141261429285        664.1158735872772        662.9768505755213        618.8984208993891        646.5891140075156        649.0244850687203        623.1119314301471        612.8037360538533        639.09243880968          645.3169332958234        637.4882791789271        630.6345758597615        602.6783609382884        612.8458010384722        607.1256942570639        598.1605795975374        620.1378601855733        625.0851982293118        619.2384396051967        615.0519401492993        596.0149171931429        603.068086366675         650.5163886044409        648.419679671048         619.5766407259813        660.3882693169894        658.3401236436763        659.5316598235881        633.6801935322243        676.7855040894462
24                       703.3365442427777        665.3548394484417        688.2892798598737        687.4527547187497        641.498021058572         670.069799857568         672.8119646039521        645.9388688967878        635.3886620672334        662.5657524250449        669.097847341598         661.2724954663912        654.1105839763098        625.2636832758303        635.6703539415782        630.565505668693         621.3742960924833        644.2125047403317        649.4708896222068        643.6894164541707        639.1887882761011        619.2887958802912        626.5658805788497        674.2970202134483        671.885778618265         642.146879992357         683.2014627717681        682.6978087968923        683.5661683120653        656.816319492746         700.1583723273936
27                       724.9039523750737        686.7378333595423        710.3895575525341        709.8167053171063        662.268042930327         691.5949479428401        694.6027207962657        666.9022074050989        656.1476947619354        684.085591003749         690.883895842902         683.0615922809028        675.6329227348568        646.0232183044606        656.631798993098         652.0454085742688        642.66278527272          666.2407415423701        671.7698574589448        666.047074345371         661.2723876468034        640.6292563402128        648.0962678118415        696.0839943849743        693.4006213719986        662.895089807214         704.1545153534611        704.9883185825879        705.5751443434968        678.0537518866932        721.5958659941372
