% Model:              brazing.mph
% Version:            COMSOL 5.3.0.223
% Date:               Oct 24 2018, 05:31
% Table:              Table 3 - 
% Time (s)               Temperature (Cp_Al = 848.42, k_Al = 130.73, sigma_Al = 4.352E7, rho_Al = 2191, Cp_inlet = 773.18, k_inlet = 154.98, sigma_inlet = 2.9916E7, rho_inlet = 2281, Cp_outlet = 861.32, k_outlet = 142.48, sigma_outlet = 4.0084E7, rho_outlet = 2413.2, Cp_outlet_sleeve = 797.37, k_outlet_sleeve = 158.81, sigma_outlet_sleeve = 3.4987E7, rho_outlet_sleeve = 2132.7, Cp_inlet_sleeve = 870.8, k_inlet_sleeve = 140.86, sigma_inlet_sleeve = 5.1849E7, rho_inlet_sleeve = 2718) (degC), Point: 55Temperature (Cp_Al = 848.42, k_Al = 130.73, sigma_Al = 4.352E7, rho_Al = 2191, Cp_inlet = 773.18, k_inlet = 154.98, sigma_inlet = 2.9916E7, rho_inlet = 2281, Cp_outlet = 861.32, k_outlet = 142.48, sigma_outlet = 4.0084E7, rho_outlet = 2413.2, Cp_outlet_sleeve = 797.37, k_outlet_sleeve = 158.81, sigma_outlet_sleeve = 3.4987E7, rho_outlet_sleeve = 2132.7, Cp_inlet_sleeve = 870.8, k_inlet_sleeve = 140.86, sigma_inlet_sleeve = 5.1849E7, rho_inlet_sleeve = 2718) (degC), Point: 56Temperature (Cp_Al = 848.42, k_Al = 130.73, sigma_Al = 4.352E7, rho_Al = 2191, Cp_inlet = 773.18, k_inlet = 154.98, sigma_inlet = 2.9916E7, rho_inlet = 2281, Cp_outlet = 861.32, k_outlet = 142.48, sigma_outlet = 4.0084E7, rho_outlet = 2413.2, Cp_outlet_sleeve = 797.37, k_outlet_sleeve = 158.81, sigma_outlet_sleeve = 3.4987E7, rho_outlet_sleeve = 2132.7, Cp_inlet_sleeve = 870.8, k_inlet_sleeve = 140.86, sigma_inlet_sleeve = 5.1849E7, rho_inlet_sleeve = 2718) (degC), Point: 60Temperature (Cp_Al = 848.42, k_Al = 130.73, sigma_Al = 4.352E7, rho_Al = 2191, Cp_inlet = 773.18, k_inlet = 154.98, sigma_inlet = 2.9916E7, rho_inlet = 2281, Cp_outlet = 861.32, k_outlet = 142.48, sigma_outlet = 4.0084E7, rho_outlet = 2413.2, Cp_outlet_sleeve = 797.37, k_outlet_sleeve = 158.81, sigma_outlet_sleeve = 3.4987E7, rho_outlet_sleeve = 2132.7, Cp_inlet_sleeve = 870.8, k_inlet_sleeve = 140.86, sigma_inlet_sleeve = 5.1849E7, rho_inlet_sleeve = 2718) (degC), Point: 69Temperature (Cp_Al = 848.42, k_Al = 130.73, sigma_Al = 4.352E7, rho_Al = 2191, Cp_inlet = 773.18, k_inlet = 154.98, sigma_inlet = 2.9916E7, rho_inlet = 2281, Cp_outlet = 861.32, k_outlet = 142.48, sigma_outlet = 4.0084E7, rho_outlet = 2413.2, Cp_outlet_sleeve = 797.37, k_outlet_sleeve = 158.81, sigma_outlet_sleeve = 3.4987E7, rho_outlet_sleeve = 2132.7, Cp_inlet_sleeve = 870.8, k_inlet_sleeve = 140.86, sigma_inlet_sleeve = 5.1849E7, rho_inlet_sleeve = 2718) (degC), Point: 90Temperature (Cp_Al = 848.42, k_Al = 130.73, sigma_Al = 4.352E7, rho_Al = 2191, Cp_inlet = 773.18, k_inlet = 154.98, sigma_inlet = 2.9916E7, rho_inlet = 2281, Cp_outlet = 861.32, k_outlet = 142.48, sigma_outlet = 4.0084E7, rho_outlet = 2413.2, Cp_outlet_sleeve = 797.37, k_outlet_sleeve = 158.81, sigma_outlet_sleeve = 3.4987E7, rho_outlet_sleeve = 2132.7, Cp_inlet_sleeve = 870.8, k_inlet_sleeve = 140.86, sigma_inlet_sleeve = 5.1849E7, rho_inlet_sleeve = 2718) (degC), Point: 98Temperature (Cp_Al = 848.42, k_Al = 130.73, sigma_Al = 4.352E7, rho_Al = 2191, Cp_inlet = 773.18, k_inlet = 154.98, sigma_inlet = 2.9916E7, rho_inlet = 2281, Cp_outlet = 861.32, k_outlet = 142.48, sigma_outlet = 4.0084E7, rho_outlet = 2413.2, Cp_outlet_sleeve = 797.37, k_outlet_sleeve = 158.81, sigma_outlet_sleeve = 3.4987E7, rho_outlet_sleeve = 2132.7, Cp_inlet_sleeve = 870.8, k_inlet_sleeve = 140.86, sigma_inlet_sleeve = 5.1849E7, rho_inlet_sleeve = 2718) (degC), Point: 102Temperature (Cp_Al = 848.42, k_Al = 130.73, sigma_Al = 4.352E7, rho_Al = 2191, Cp_inlet = 773.18, k_inlet = 154.98, sigma_inlet = 2.9916E7, rho_inlet = 2281, Cp_outlet = 861.32, k_outlet = 142.48, sigma_outlet = 4.0084E7, rho_outlet = 2413.2, Cp_outlet_sleeve = 797.37, k_outlet_sleeve = 158.81, sigma_outlet_sleeve = 3.4987E7, rho_outlet_sleeve = 2132.7, Cp_inlet_sleeve = 870.8, k_inlet_sleeve = 140.86, sigma_inlet_sleeve = 5.1849E7, rho_inlet_sleeve = 2718) (degC), Point: 127Temperature (Cp_Al = 848.42, k_Al = 130.73, sigma_Al = 4.352E7, rho_Al = 2191, Cp_inlet = 773.18, k_inlet = 154.98, sigma_inlet = 2.9916E7, rho_inlet = 2281, Cp_outlet = 861.32, k_outlet = 142.48, sigma_outlet = 4.0084E7, rho_outlet = 2413.2, Cp_outlet_sleeve = 797.37, k_outlet_sleeve = 158.81, sigma_outlet_sleeve = 3.4987E7, rho_outlet_sleeve = 2132.7, Cp_inlet_sleeve = 870.8, k_inlet_sleeve = 140.86, sigma_inlet_sleeve = 5.1849E7, rho_inlet_sleeve = 2718) (degC), Point: 128Temperature (Cp_Al = 848.42, k_Al = 130.73, sigma_Al = 4.352E7, rho_Al = 2191, Cp_inlet = 773.18, k_inlet = 154.98, sigma_inlet = 2.9916E7, rho_inlet = 2281, Cp_outlet = 861.32, k_outlet = 142.48, sigma_outlet = 4.0084E7, rho_outlet = 2413.2, Cp_outlet_sleeve = 797.37, k_outlet_sleeve = 158.81, sigma_outlet_sleeve = 3.4987E7, rho_outlet_sleeve = 2132.7, Cp_inlet_sleeve = 870.8, k_inlet_sleeve = 140.86, sigma_inlet_sleeve = 5.1849E7, rho_inlet_sleeve = 2718) (degC), Point: 134Temperature (Cp_Al = 848.42, k_Al = 130.73, sigma_Al = 4.352E7, rho_Al = 2191, Cp_inlet = 773.18, k_inlet = 154.98, sigma_inlet = 2.9916E7, rho_inlet = 2281, Cp_outlet = 861.32, k_outlet = 142.48, sigma_outlet = 4.0084E7, rho_outlet = 2413.2, Cp_outlet_sleeve = 797.37, k_outlet_sleeve = 158.81, sigma_outlet_sleeve = 3.4987E7, rho_outlet_sleeve = 2132.7, Cp_inlet_sleeve = 870.8, k_inlet_sleeve = 140.86, sigma_inlet_sleeve = 5.1849E7, rho_inlet_sleeve = 2718) (degC), Point: 138Temperature (Cp_Al = 848.42, k_Al = 130.73, sigma_Al = 4.352E7, rho_Al = 2191, Cp_inlet = 773.18, k_inlet = 154.98, sigma_inlet = 2.9916E7, rho_inlet = 2281, Cp_outlet = 861.32, k_outlet = 142.48, sigma_outlet = 4.0084E7, rho_outlet = 2413.2, Cp_outlet_sleeve = 797.37, k_outlet_sleeve = 158.81, sigma_outlet_sleeve = 3.4987E7, rho_outlet_sleeve = 2132.7, Cp_inlet_sleeve = 870.8, k_inlet_sleeve = 140.86, sigma_inlet_sleeve = 5.1849E7, rho_inlet_sleeve = 2718) (degC), Point: 151Temperature (Cp_Al = 848.42, k_Al = 130.73, sigma_Al = 4.352E7, rho_Al = 2191, Cp_inlet = 773.18, k_inlet = 154.98, sigma_inlet = 2.9916E7, rho_inlet = 2281, Cp_outlet = 861.32, k_outlet = 142.48, sigma_outlet = 4.0084E7, rho_outlet = 2413.2, Cp_outlet_sleeve = 797.37, k_outlet_sleeve = 158.81, sigma_outlet_sleeve = 3.4987E7, rho_outlet_sleeve = 2132.7, Cp_inlet_sleeve = 870.8, k_inlet_sleeve = 140.86, sigma_inlet_sleeve = 5.1849E7, rho_inlet_sleeve = 2718) (degC), Point: 154Temperature (Cp_Al = 848.42, k_Al = 130.73, sigma_Al = 4.352E7, rho_Al = 2191, Cp_inlet = 773.18, k_inlet = 154.98, sigma_inlet = 2.9916E7, rho_inlet = 2281, Cp_outlet = 861.32, k_outlet = 142.48, sigma_outlet = 4.0084E7, rho_outlet = 2413.2, Cp_outlet_sleeve = 797.37, k_outlet_sleeve = 158.81, sigma_outlet_sleeve = 3.4987E7, rho_outlet_sleeve = 2132.7, Cp_inlet_sleeve = 870.8, k_inlet_sleeve = 140.86, sigma_inlet_sleeve = 5.1849E7, rho_inlet_sleeve = 2718) (degC), Point: 159Temperature (Cp_Al = 848.42, k_Al = 130.73, sigma_Al = 4.352E7, rho_Al = 2191, Cp_inlet = 773.18, k_inlet = 154.98, sigma_inlet = 2.9916E7, rho_inlet = 2281, Cp_outlet = 861.32, k_outlet = 142.48, sigma_outlet = 4.0084E7, rho_outlet = 2413.2, Cp_outlet_sleeve = 797.37, k_outlet_sleeve = 158.81, sigma_outlet_sleeve = 3.4987E7, rho_outlet_sleeve = 2132.7, Cp_inlet_sleeve = 870.8, k_inlet_sleeve = 140.86, sigma_inlet_sleeve = 5.1849E7, rho_inlet_sleeve = 2718) (degC), Point: 163Temperature (Cp_Al = 848.42, k_Al = 130.73, sigma_Al = 4.352E7, rho_Al = 2191, Cp_inlet = 773.18, k_inlet = 154.98, sigma_inlet = 2.9916E7, rho_inlet = 2281, Cp_outlet = 861.32, k_outlet = 142.48, sigma_outlet = 4.0084E7, rho_outlet = 2413.2, Cp_outlet_sleeve = 797.37, k_outlet_sleeve = 158.81, sigma_outlet_sleeve = 3.4987E7, rho_outlet_sleeve = 2132.7, Cp_inlet_sleeve = 870.8, k_inlet_sleeve = 140.86, sigma_inlet_sleeve = 5.1849E7, rho_inlet_sleeve = 2718) (degC), Point: 167Temperature (Cp_Al = 848.42, k_Al = 130.73, sigma_Al = 4.352E7, rho_Al = 2191, Cp_inlet = 773.18, k_inlet = 154.98, sigma_inlet = 2.9916E7, rho_inlet = 2281, Cp_outlet = 861.32, k_outlet = 142.48, sigma_outlet = 4.0084E7, rho_outlet = 2413.2, Cp_outlet_sleeve = 797.37, k_outlet_sleeve = 158.81, sigma_outlet_sleeve = 3.4987E7, rho_outlet_sleeve = 2132.7, Cp_inlet_sleeve = 870.8, k_inlet_sleeve = 140.86, sigma_inlet_sleeve = 5.1849E7, rho_inlet_sleeve = 2718) (degC), Point: 168Temperature (Cp_Al = 848.42, k_Al = 130.73, sigma_Al = 4.352E7, rho_Al = 2191, Cp_inlet = 773.18, k_inlet = 154.98, sigma_inlet = 2.9916E7, rho_inlet = 2281, Cp_outlet = 861.32, k_outlet = 142.48, sigma_outlet = 4.0084E7, rho_outlet = 2413.2, Cp_outlet_sleeve = 797.37, k_outlet_sleeve = 158.81, sigma_outlet_sleeve = 3.4987E7, rho_outlet_sleeve = 2132.7, Cp_inlet_sleeve = 870.8, k_inlet_sleeve = 140.86, sigma_inlet_sleeve = 5.1849E7, rho_inlet_sleeve = 2718) (degC), Point: 172Temperature (Cp_Al = 848.42, k_Al = 130.73, sigma_Al = 4.352E7, rho_Al = 2191, Cp_inlet = 773.18, k_inlet = 154.98, sigma_inlet = 2.9916E7, rho_inlet = 2281, Cp_outlet = 861.32, k_outlet = 142.48, sigma_outlet = 4.0084E7, rho_outlet = 2413.2, Cp_outlet_sleeve = 797.37, k_outlet_sleeve = 158.81, sigma_outlet_sleeve = 3.4987E7, rho_outlet_sleeve = 2132.7, Cp_inlet_sleeve = 870.8, k_inlet_sleeve = 140.86, sigma_inlet_sleeve = 5.1849E7, rho_inlet_sleeve = 2718) (degC), Point: 181Temperature (Cp_Al = 848.42, k_Al = 130.73, sigma_Al = 4.352E7, rho_Al = 2191, Cp_inlet = 773.18, k_inlet = 154.98, sigma_inlet = 2.9916E7, rho_inlet = 2281, Cp_outlet = 861.32, k_outlet = 142.48, sigma_outlet = 4.0084E7, rho_outlet = 2413.2, Cp_outlet_sleeve = 797.37, k_outlet_sleeve = 158.81, sigma_outlet_sleeve = 3.4987E7, rho_outlet_sleeve = 2132.7, Cp_inlet_sleeve = 870.8, k_inlet_sleeve = 140.86, sigma_inlet_sleeve = 5.1849E7, rho_inlet_sleeve = 2718) (degC), Point: 201Temperature (Cp_Al = 848.42, k_Al = 130.73, sigma_Al = 4.352E7, rho_Al = 2191, Cp_inlet = 773.18, k_inlet = 154.98, sigma_inlet = 2.9916E7, rho_inlet = 2281, Cp_outlet = 861.32, k_outlet = 142.48, sigma_outlet = 4.0084E7, rho_outlet = 2413.2, Cp_outlet_sleeve = 797.37, k_outlet_sleeve = 158.81, sigma_outlet_sleeve = 3.4987E7, rho_outlet_sleeve = 2132.7, Cp_inlet_sleeve = 870.8, k_inlet_sleeve = 140.86, sigma_inlet_sleeve = 5.1849E7, rho_inlet_sleeve = 2718) (degC), Point: 210Temperature (Cp_Al = 848.42, k_Al = 130.73, sigma_Al = 4.352E7, rho_Al = 2191, Cp_inlet = 773.18, k_inlet = 154.98, sigma_inlet = 2.9916E7, rho_inlet = 2281, Cp_outlet = 861.32, k_outlet = 142.48, sigma_outlet = 4.0084E7, rho_outlet = 2413.2, Cp_outlet_sleeve = 797.37, k_outlet_sleeve = 158.81, sigma_outlet_sleeve = 3.4987E7, rho_outlet_sleeve = 2132.7, Cp_inlet_sleeve = 870.8, k_inlet_sleeve = 140.86, sigma_inlet_sleeve = 5.1849E7, rho_inlet_sleeve = 2718) (degC), Point: 213Temperature (Cp_Al = 848.42, k_Al = 130.73, sigma_Al = 4.352E7, rho_Al = 2191, Cp_inlet = 773.18, k_inlet = 154.98, sigma_inlet = 2.9916E7, rho_inlet = 2281, Cp_outlet = 861.32, k_outlet = 142.48, sigma_outlet = 4.0084E7, rho_outlet = 2413.2, Cp_outlet_sleeve = 797.37, k_outlet_sleeve = 158.81, sigma_outlet_sleeve = 3.4987E7, rho_outlet_sleeve = 2132.7, Cp_inlet_sleeve = 870.8, k_inlet_sleeve = 140.86, sigma_inlet_sleeve = 5.1849E7, rho_inlet_sleeve = 2718) (degC), Point: 215Temperature (Cp_Al = 848.42, k_Al = 130.73, sigma_Al = 4.352E7, rho_Al = 2191, Cp_inlet = 773.18, k_inlet = 154.98, sigma_inlet = 2.9916E7, rho_inlet = 2281, Cp_outlet = 861.32, k_outlet = 142.48, sigma_outlet = 4.0084E7, rho_outlet = 2413.2, Cp_outlet_sleeve = 797.37, k_outlet_sleeve = 158.81, sigma_outlet_sleeve = 3.4987E7, rho_outlet_sleeve = 2132.7, Cp_inlet_sleeve = 870.8, k_inlet_sleeve = 140.86, sigma_inlet_sleeve = 5.1849E7, rho_inlet_sleeve = 2718) (degC), Point: 229Temperature (Cp_Al = 848.42, k_Al = 130.73, sigma_Al = 4.352E7, rho_Al = 2191, Cp_inlet = 773.18, k_inlet = 154.98, sigma_inlet = 2.9916E7, rho_inlet = 2281, Cp_outlet = 861.32, k_outlet = 142.48, sigma_outlet = 4.0084E7, rho_outlet = 2413.2, Cp_outlet_sleeve = 797.37, k_outlet_sleeve = 158.81, sigma_outlet_sleeve = 3.4987E7, rho_outlet_sleeve = 2132.7, Cp_inlet_sleeve = 870.8, k_inlet_sleeve = 140.86, sigma_inlet_sleeve = 5.1849E7, rho_inlet_sleeve = 2718) (degC), Point: 232Temperature (Cp_Al = 848.42, k_Al = 130.73, sigma_Al = 4.352E7, rho_Al = 2191, Cp_inlet = 773.18, k_inlet = 154.98, sigma_inlet = 2.9916E7, rho_inlet = 2281, Cp_outlet = 861.32, k_outlet = 142.48, sigma_outlet = 4.0084E7, rho_outlet = 2413.2, Cp_outlet_sleeve = 797.37, k_outlet_sleeve = 158.81, sigma_outlet_sleeve = 3.4987E7, rho_outlet_sleeve = 2132.7, Cp_inlet_sleeve = 870.8, k_inlet_sleeve = 140.86, sigma_inlet_sleeve = 5.1849E7, rho_inlet_sleeve = 2718) (degC), Point: 239Temperature (Cp_Al = 848.42, k_Al = 130.73, sigma_Al = 4.352E7, rho_Al = 2191, Cp_inlet = 773.18, k_inlet = 154.98, sigma_inlet = 2.9916E7, rho_inlet = 2281, Cp_outlet = 861.32, k_outlet = 142.48, sigma_outlet = 4.0084E7, rho_outlet = 2413.2, Cp_outlet_sleeve = 797.37, k_outlet_sleeve = 158.81, sigma_outlet_sleeve = 3.4987E7, rho_outlet_sleeve = 2132.7, Cp_inlet_sleeve = 870.8, k_inlet_sleeve = 140.86, sigma_inlet_sleeve = 5.1849E7, rho_inlet_sleeve = 2718) (degC), Point: 252Temperature (Cp_Al = 848.42, k_Al = 130.73, sigma_Al = 4.352E7, rho_Al = 2191, Cp_inlet = 773.18, k_inlet = 154.98, sigma_inlet = 2.9916E7, rho_inlet = 2281, Cp_outlet = 861.32, k_outlet = 142.48, sigma_outlet = 4.0084E7, rho_outlet = 2413.2, Cp_outlet_sleeve = 797.37, k_outlet_sleeve = 158.81, sigma_outlet_sleeve = 3.4987E7, rho_outlet_sleeve = 2132.7, Cp_inlet_sleeve = 870.8, k_inlet_sleeve = 140.86, sigma_inlet_sleeve = 5.1849E7, rho_inlet_sleeve = 2718) (degC), Point: 261Temperature (Cp_Al = 848.42, k_Al = 130.73, sigma_Al = 4.352E7, rho_Al = 2191, Cp_inlet = 773.18, k_inlet = 154.98, sigma_inlet = 2.9916E7, rho_inlet = 2281, Cp_outlet = 861.32, k_outlet = 142.48, sigma_outlet = 4.0084E7, rho_outlet = 2413.2, Cp_outlet_sleeve = 797.37, k_outlet_sleeve = 158.81, sigma_outlet_sleeve = 3.4987E7, rho_outlet_sleeve = 2132.7, Cp_inlet_sleeve = 870.8, k_inlet_sleeve = 140.86, sigma_inlet_sleeve = 5.1849E7, rho_inlet_sleeve = 2718) (degC), Point: 270Temperature (Cp_Al = 848.42, k_Al = 130.73, sigma_Al = 4.352E7, rho_Al = 2191, Cp_inlet = 773.18, k_inlet = 154.98, sigma_inlet = 2.9916E7, rho_inlet = 2281, Cp_outlet = 861.32, k_outlet = 142.48, sigma_outlet = 4.0084E7, rho_outlet = 2413.2, Cp_outlet_sleeve = 797.37, k_outlet_sleeve = 158.81, sigma_outlet_sleeve = 3.4987E7, rho_outlet_sleeve = 2132.7, Cp_inlet_sleeve = 870.8, k_inlet_sleeve = 140.86, sigma_inlet_sleeve = 5.1849E7, rho_inlet_sleeve = 2718) (degC), Point: 273Temperature (Cp_Al = 848.42, k_Al = 130.73, sigma_Al = 4.352E7, rho_Al = 2191, Cp_inlet = 773.18, k_inlet = 154.98, sigma_inlet = 2.9916E7, rho_inlet = 2281, Cp_outlet = 861.32, k_outlet = 142.48, sigma_outlet = 4.0084E7, rho_outlet = 2413.2, Cp_outlet_sleeve = 797.37, k_outlet_sleeve = 158.81, sigma_outlet_sleeve = 3.4987E7, rho_outlet_sleeve = 2132.7, Cp_inlet_sleeve = 870.8, k_inlet_sleeve = 140.86, sigma_inlet_sleeve = 5.1849E7, rho_inlet_sleeve = 2718) (degC), Point: 275
0                        21.784443954467633       21.016018928208666       21.131366087204526       21.008850879119166       21.013521473036292       21.10735489970915        21.010088616890698       21.029889015445292       21.001350194199233       21.024448102391716       21.001392559256374       21.000706606624306       21.00934072782144        21.000105952992442       21.008697737120997       21.025900499411023       21.000060196555353       21.011523950571473       21.000756334268374       21.0003104854556         21.001775742554116       21.000201626515832       21.000322990993766       21.010079137218327       21.117732339471786       21.012876167916488       21.61637719218635        21.008721203100947       21.1441645668624         21.019813240645703       21.872381985206346
3                        336.1415042600746        301.37440713855335       310.12309302741437       305.26594814072496       280.9456265788896        296.55783735912973       295.98336732093287       280.9816132270629        274.95095793887697       289.092037627658         292.21242640242656       283.9792444681199        280.2775732517679        264.50925196875096       270.3398243730254        266.8010510430663        262.16587127136506       270.50370985404743       271.69600383902275       265.3178747432413        264.7410690086018        258.93279058121846       261.7385059299396        298.01842830463727       299.0111194269724        282.53756349343223       321.1775464975336        306.58303716924513       311.65562227524515       300.10223730171765       339.9593518423052
6                        466.27692101610467       429.9151536480538        442.91665307121855       438.91580749798527       415.305799267127         435.62860227404497       435.9818863323675        417.2396092082031        409.14002196296656       428.05210313651014       432.1076292001595        423.87395136611326       419.24189427764077       398.70008273584347       406.5889412072711        395.4466725794782        389.1358957129819        401.93599878816997       404.02645375610564       397.7665451462399        396.3598703219951        386.29331484604734       390.7093568429159        437.8183239373318        437.8558333147912        416.55559252048556       457.28360508496064       437.61666973389663       441.8140715441249        425.7434189514255        467.3200869416743
9                        541.6199112585041        504.3352368115626        520.2175709586692        517.0175083901187        492.7449242948861        516.2244698040837        517.4001492916195        495.76322264318446       486.4870188379491        508.59322158446685       513.4751476841382        505.230009083534         499.7714958607038        476.0276869959914        485.0848332893314        469.90087628322715       462.6196967854688        478.42839456663864       481.348565470774         475.1875312341152        472.9829776420336        460.00231289137173       465.3575575210797        519.1316726736949        518.3232550538405        493.7895993831471        535.7052102124468        514.2310908451988        517.6004703428347        498.4570163722427        541.0380087836629
12                       594.4020014690692        556.4964626257505        574.4442361416696        571.8758668110427        546.0731811886126        571.8042888524856        573.6292196853722        549.8052518317496        539.7558184412015        564.1386294083193        569.6725060017894        561.4238175615347        555.3128117426877        529.2862290896022        539.1103874890815        522.1629307633569        514.2298571796877        532.19007773344          535.7628989525668        529.6646086176884        526.8206271685477        511.7325393961014        517.7230582273329        575.300262566434         573.8244313371329        546.9875926588534        589.6830909242688        568.247085910862         570.9550635940805        549.5970387438423        592.8560794188992
15                       633.877706329938         595.5350860262675        615.01954004534          612.9560401525501        585.2495808996669        612.6366721077735        614.9769536774935        589.4716603301313        578.8935259356776        604.9493840160895        611.0004442743784        602.7524501298318        596.1235517103939        568.4192540668768        578.7672578909364        561.3225797121846        552.9316577768191        572.4883199656769        576.5817296506139        570.5506462218877        567.1893782102118        550.521677441134         556.961492668848         616.6143362464866        614.6090693525357        586.0811004625107        629.3092109762665        608.8617917958428        611.0359164077692        588.0236213344361        631.760856253664
18                       665.8454396034548        627.173195394439         647.8648229756323        646.2170607940643        616.5243065168612        645.1944628720149        647.9549100552834        621.1075621507288        610.1421455046049        637.493139695083         643.9656413064171        635.7202170699695        628.6691577614464        599.6661266648937        610.3974435675239        593.0860555216483        584.3508975524819        605.1583850648965        609.6798364894527        603.720532153979         599.9300259677909        582.0157262146138        588.7951190481808        649.5736570983763        647.1370347545534        617.3012276703595        660.9188775851072        641.8627583747826        643.5946341259046        619.280998211701         663.37837696973
21                       693.5101643308607        654.5730094387728        676.260522966487         674.9653093476429        643.3449969723358        673.0589779088017        676.1717765994669        648.2133137340863        636.9444405718874        665.348152084109         672.1739162960597        663.931728179065         656.526743640524         626.4681403170215        637.4995541876104        620.6101688375376        611.5993207274618        633.4359808608825        638.3198859888704        632.4310587663526        628.2751841354929        609.3307685013251        616.3829803768742        677.7802146040649        674.9821179595014        644.0843360974743        688.0067077910672        670.4612859524764        671.8173039655826        646.4315894658049        690.8171798868924
24                       718.4401428098089        679.282159355553         701.8141021385           700.8227775289087        667.3890880452609        697.9758090815482        701.3886882491386        672.4914742649423        660.9752144955472        690.2583895435961        697.3848931559603        689.146047043642         681.4397353866585        650.4993543870289        661.7752628590679        645.439380562826         636.1995287275566        658.9066093966286        664.102479371378         658.2793685702025        653.8080951193998        633.9902933942597        641.2695368904247        702.9917065361951        699.885975478699         668.1018187511088        712.2722225109771        696.2322277746912        697.2642921312666        670.9722005986706        715.5967023377855
27                       741.4887936183268        702.1432112779358        725.4008558190329        724.6733149576535        689.561949459512         720.8881064244799        724.558149153682         694.8604494361625        683.1382058514317        713.1660104937095        720.5501612393336        712.3145107539043        704.3500412555236        672.6631350621353        684.1425212428638        668.4134541536071        658.9796698179808        682.4331054409272        687.8994034102521        682.1358327065109        677.3907095505363        656.8229605596715        664.294660643084         726.158644469906         722.7894367747882        690.2553882646599        734.6320380254584        720.0333892848693        720.7845675788506        693.7161141309408        738.5424502539378
