% Model:              brazing.mph
% Version:            COMSOL 5.3.0.223
% Date:               Oct 24 2018, 05:20
% Table:              Table 3 - 
% Time (s)               Temperature (Cp_Al = 854.36, k_Al = 143.5, sigma_Al = 4.0043E7, rho_Al = 2644.6, Cp_inlet = 913.9, k_inlet = 157.47, sigma_inlet = 3.4004E7, rho_inlet = 2433.5, Cp_outlet = 841.19, k_outlet = 150.41, sigma_outlet = 3.8259E7, rho_outlet = 2594, Cp_outlet_sleeve = 810.41, k_outlet_sleeve = 162.32, sigma_outlet_sleeve = 3.468E7, rho_outlet_sleeve = 2530.4, Cp_inlet_sleeve = 913.17, k_inlet_sleeve = 157.71, sigma_inlet_sleeve = 4.1513E7, rho_inlet_sleeve = 2604.4) (degC), Point: 55Temperature (Cp_Al = 854.36, k_Al = 143.5, sigma_Al = 4.0043E7, rho_Al = 2644.6, Cp_inlet = 913.9, k_inlet = 157.47, sigma_inlet = 3.4004E7, rho_inlet = 2433.5, Cp_outlet = 841.19, k_outlet = 150.41, sigma_outlet = 3.8259E7, rho_outlet = 2594, Cp_outlet_sleeve = 810.41, k_outlet_sleeve = 162.32, sigma_outlet_sleeve = 3.468E7, rho_outlet_sleeve = 2530.4, Cp_inlet_sleeve = 913.17, k_inlet_sleeve = 157.71, sigma_inlet_sleeve = 4.1513E7, rho_inlet_sleeve = 2604.4) (degC), Point: 56Temperature (Cp_Al = 854.36, k_Al = 143.5, sigma_Al = 4.0043E7, rho_Al = 2644.6, Cp_inlet = 913.9, k_inlet = 157.47, sigma_inlet = 3.4004E7, rho_inlet = 2433.5, Cp_outlet = 841.19, k_outlet = 150.41, sigma_outlet = 3.8259E7, rho_outlet = 2594, Cp_outlet_sleeve = 810.41, k_outlet_sleeve = 162.32, sigma_outlet_sleeve = 3.468E7, rho_outlet_sleeve = 2530.4, Cp_inlet_sleeve = 913.17, k_inlet_sleeve = 157.71, sigma_inlet_sleeve = 4.1513E7, rho_inlet_sleeve = 2604.4) (degC), Point: 60Temperature (Cp_Al = 854.36, k_Al = 143.5, sigma_Al = 4.0043E7, rho_Al = 2644.6, Cp_inlet = 913.9, k_inlet = 157.47, sigma_inlet = 3.4004E7, rho_inlet = 2433.5, Cp_outlet = 841.19, k_outlet = 150.41, sigma_outlet = 3.8259E7, rho_outlet = 2594, Cp_outlet_sleeve = 810.41, k_outlet_sleeve = 162.32, sigma_outlet_sleeve = 3.468E7, rho_outlet_sleeve = 2530.4, Cp_inlet_sleeve = 913.17, k_inlet_sleeve = 157.71, sigma_inlet_sleeve = 4.1513E7, rho_inlet_sleeve = 2604.4) (degC), Point: 69Temperature (Cp_Al = 854.36, k_Al = 143.5, sigma_Al = 4.0043E7, rho_Al = 2644.6, Cp_inlet = 913.9, k_inlet = 157.47, sigma_inlet = 3.4004E7, rho_inlet = 2433.5, Cp_outlet = 841.19, k_outlet = 150.41, sigma_outlet = 3.8259E7, rho_outlet = 2594, Cp_outlet_sleeve = 810.41, k_outlet_sleeve = 162.32, sigma_outlet_sleeve = 3.468E7, rho_outlet_sleeve = 2530.4, Cp_inlet_sleeve = 913.17, k_inlet_sleeve = 157.71, sigma_inlet_sleeve = 4.1513E7, rho_inlet_sleeve = 2604.4) (degC), Point: 90Temperature (Cp_Al = 854.36, k_Al = 143.5, sigma_Al = 4.0043E7, rho_Al = 2644.6, Cp_inlet = 913.9, k_inlet = 157.47, sigma_inlet = 3.4004E7, rho_inlet = 2433.5, Cp_outlet = 841.19, k_outlet = 150.41, sigma_outlet = 3.8259E7, rho_outlet = 2594, Cp_outlet_sleeve = 810.41, k_outlet_sleeve = 162.32, sigma_outlet_sleeve = 3.468E7, rho_outlet_sleeve = 2530.4, Cp_inlet_sleeve = 913.17, k_inlet_sleeve = 157.71, sigma_inlet_sleeve = 4.1513E7, rho_inlet_sleeve = 2604.4) (degC), Point: 98Temperature (Cp_Al = 854.36, k_Al = 143.5, sigma_Al = 4.0043E7, rho_Al = 2644.6, Cp_inlet = 913.9, k_inlet = 157.47, sigma_inlet = 3.4004E7, rho_inlet = 2433.5, Cp_outlet = 841.19, k_outlet = 150.41, sigma_outlet = 3.8259E7, rho_outlet = 2594, Cp_outlet_sleeve = 810.41, k_outlet_sleeve = 162.32, sigma_outlet_sleeve = 3.468E7, rho_outlet_sleeve = 2530.4, Cp_inlet_sleeve = 913.17, k_inlet_sleeve = 157.71, sigma_inlet_sleeve = 4.1513E7, rho_inlet_sleeve = 2604.4) (degC), Point: 102Temperature (Cp_Al = 854.36, k_Al = 143.5, sigma_Al = 4.0043E7, rho_Al = 2644.6, Cp_inlet = 913.9, k_inlet = 157.47, sigma_inlet = 3.4004E7, rho_inlet = 2433.5, Cp_outlet = 841.19, k_outlet = 150.41, sigma_outlet = 3.8259E7, rho_outlet = 2594, Cp_outlet_sleeve = 810.41, k_outlet_sleeve = 162.32, sigma_outlet_sleeve = 3.468E7, rho_outlet_sleeve = 2530.4, Cp_inlet_sleeve = 913.17, k_inlet_sleeve = 157.71, sigma_inlet_sleeve = 4.1513E7, rho_inlet_sleeve = 2604.4) (degC), Point: 127Temperature (Cp_Al = 854.36, k_Al = 143.5, sigma_Al = 4.0043E7, rho_Al = 2644.6, Cp_inlet = 913.9, k_inlet = 157.47, sigma_inlet = 3.4004E7, rho_inlet = 2433.5, Cp_outlet = 841.19, k_outlet = 150.41, sigma_outlet = 3.8259E7, rho_outlet = 2594, Cp_outlet_sleeve = 810.41, k_outlet_sleeve = 162.32, sigma_outlet_sleeve = 3.468E7, rho_outlet_sleeve = 2530.4, Cp_inlet_sleeve = 913.17, k_inlet_sleeve = 157.71, sigma_inlet_sleeve = 4.1513E7, rho_inlet_sleeve = 2604.4) (degC), Point: 128Temperature (Cp_Al = 854.36, k_Al = 143.5, sigma_Al = 4.0043E7, rho_Al = 2644.6, Cp_inlet = 913.9, k_inlet = 157.47, sigma_inlet = 3.4004E7, rho_inlet = 2433.5, Cp_outlet = 841.19, k_outlet = 150.41, sigma_outlet = 3.8259E7, rho_outlet = 2594, Cp_outlet_sleeve = 810.41, k_outlet_sleeve = 162.32, sigma_outlet_sleeve = 3.468E7, rho_outlet_sleeve = 2530.4, Cp_inlet_sleeve = 913.17, k_inlet_sleeve = 157.71, sigma_inlet_sleeve = 4.1513E7, rho_inlet_sleeve = 2604.4) (degC), Point: 134Temperature (Cp_Al = 854.36, k_Al = 143.5, sigma_Al = 4.0043E7, rho_Al = 2644.6, Cp_inlet = 913.9, k_inlet = 157.47, sigma_inlet = 3.4004E7, rho_inlet = 2433.5, Cp_outlet = 841.19, k_outlet = 150.41, sigma_outlet = 3.8259E7, rho_outlet = 2594, Cp_outlet_sleeve = 810.41, k_outlet_sleeve = 162.32, sigma_outlet_sleeve = 3.468E7, rho_outlet_sleeve = 2530.4, Cp_inlet_sleeve = 913.17, k_inlet_sleeve = 157.71, sigma_inlet_sleeve = 4.1513E7, rho_inlet_sleeve = 2604.4) (degC), Point: 138Temperature (Cp_Al = 854.36, k_Al = 143.5, sigma_Al = 4.0043E7, rho_Al = 2644.6, Cp_inlet = 913.9, k_inlet = 157.47, sigma_inlet = 3.4004E7, rho_inlet = 2433.5, Cp_outlet = 841.19, k_outlet = 150.41, sigma_outlet = 3.8259E7, rho_outlet = 2594, Cp_outlet_sleeve = 810.41, k_outlet_sleeve = 162.32, sigma_outlet_sleeve = 3.468E7, rho_outlet_sleeve = 2530.4, Cp_inlet_sleeve = 913.17, k_inlet_sleeve = 157.71, sigma_inlet_sleeve = 4.1513E7, rho_inlet_sleeve = 2604.4) (degC), Point: 151Temperature (Cp_Al = 854.36, k_Al = 143.5, sigma_Al = 4.0043E7, rho_Al = 2644.6, Cp_inlet = 913.9, k_inlet = 157.47, sigma_inlet = 3.4004E7, rho_inlet = 2433.5, Cp_outlet = 841.19, k_outlet = 150.41, sigma_outlet = 3.8259E7, rho_outlet = 2594, Cp_outlet_sleeve = 810.41, k_outlet_sleeve = 162.32, sigma_outlet_sleeve = 3.468E7, rho_outlet_sleeve = 2530.4, Cp_inlet_sleeve = 913.17, k_inlet_sleeve = 157.71, sigma_inlet_sleeve = 4.1513E7, rho_inlet_sleeve = 2604.4) (degC), Point: 154Temperature (Cp_Al = 854.36, k_Al = 143.5, sigma_Al = 4.0043E7, rho_Al = 2644.6, Cp_inlet = 913.9, k_inlet = 157.47, sigma_inlet = 3.4004E7, rho_inlet = 2433.5, Cp_outlet = 841.19, k_outlet = 150.41, sigma_outlet = 3.8259E7, rho_outlet = 2594, Cp_outlet_sleeve = 810.41, k_outlet_sleeve = 162.32, sigma_outlet_sleeve = 3.468E7, rho_outlet_sleeve = 2530.4, Cp_inlet_sleeve = 913.17, k_inlet_sleeve = 157.71, sigma_inlet_sleeve = 4.1513E7, rho_inlet_sleeve = 2604.4) (degC), Point: 159Temperature (Cp_Al = 854.36, k_Al = 143.5, sigma_Al = 4.0043E7, rho_Al = 2644.6, Cp_inlet = 913.9, k_inlet = 157.47, sigma_inlet = 3.4004E7, rho_inlet = 2433.5, Cp_outlet = 841.19, k_outlet = 150.41, sigma_outlet = 3.8259E7, rho_outlet = 2594, Cp_outlet_sleeve = 810.41, k_outlet_sleeve = 162.32, sigma_outlet_sleeve = 3.468E7, rho_outlet_sleeve = 2530.4, Cp_inlet_sleeve = 913.17, k_inlet_sleeve = 157.71, sigma_inlet_sleeve = 4.1513E7, rho_inlet_sleeve = 2604.4) (degC), Point: 163Temperature (Cp_Al = 854.36, k_Al = 143.5, sigma_Al = 4.0043E7, rho_Al = 2644.6, Cp_inlet = 913.9, k_inlet = 157.47, sigma_inlet = 3.4004E7, rho_inlet = 2433.5, Cp_outlet = 841.19, k_outlet = 150.41, sigma_outlet = 3.8259E7, rho_outlet = 2594, Cp_outlet_sleeve = 810.41, k_outlet_sleeve = 162.32, sigma_outlet_sleeve = 3.468E7, rho_outlet_sleeve = 2530.4, Cp_inlet_sleeve = 913.17, k_inlet_sleeve = 157.71, sigma_inlet_sleeve = 4.1513E7, rho_inlet_sleeve = 2604.4) (degC), Point: 167Temperature (Cp_Al = 854.36, k_Al = 143.5, sigma_Al = 4.0043E7, rho_Al = 2644.6, Cp_inlet = 913.9, k_inlet = 157.47, sigma_inlet = 3.4004E7, rho_inlet = 2433.5, Cp_outlet = 841.19, k_outlet = 150.41, sigma_outlet = 3.8259E7, rho_outlet = 2594, Cp_outlet_sleeve = 810.41, k_outlet_sleeve = 162.32, sigma_outlet_sleeve = 3.468E7, rho_outlet_sleeve = 2530.4, Cp_inlet_sleeve = 913.17, k_inlet_sleeve = 157.71, sigma_inlet_sleeve = 4.1513E7, rho_inlet_sleeve = 2604.4) (degC), Point: 168Temperature (Cp_Al = 854.36, k_Al = 143.5, sigma_Al = 4.0043E7, rho_Al = 2644.6, Cp_inlet = 913.9, k_inlet = 157.47, sigma_inlet = 3.4004E7, rho_inlet = 2433.5, Cp_outlet = 841.19, k_outlet = 150.41, sigma_outlet = 3.8259E7, rho_outlet = 2594, Cp_outlet_sleeve = 810.41, k_outlet_sleeve = 162.32, sigma_outlet_sleeve = 3.468E7, rho_outlet_sleeve = 2530.4, Cp_inlet_sleeve = 913.17, k_inlet_sleeve = 157.71, sigma_inlet_sleeve = 4.1513E7, rho_inlet_sleeve = 2604.4) (degC), Point: 172Temperature (Cp_Al = 854.36, k_Al = 143.5, sigma_Al = 4.0043E7, rho_Al = 2644.6, Cp_inlet = 913.9, k_inlet = 157.47, sigma_inlet = 3.4004E7, rho_inlet = 2433.5, Cp_outlet = 841.19, k_outlet = 150.41, sigma_outlet = 3.8259E7, rho_outlet = 2594, Cp_outlet_sleeve = 810.41, k_outlet_sleeve = 162.32, sigma_outlet_sleeve = 3.468E7, rho_outlet_sleeve = 2530.4, Cp_inlet_sleeve = 913.17, k_inlet_sleeve = 157.71, sigma_inlet_sleeve = 4.1513E7, rho_inlet_sleeve = 2604.4) (degC), Point: 181Temperature (Cp_Al = 854.36, k_Al = 143.5, sigma_Al = 4.0043E7, rho_Al = 2644.6, Cp_inlet = 913.9, k_inlet = 157.47, sigma_inlet = 3.4004E7, rho_inlet = 2433.5, Cp_outlet = 841.19, k_outlet = 150.41, sigma_outlet = 3.8259E7, rho_outlet = 2594, Cp_outlet_sleeve = 810.41, k_outlet_sleeve = 162.32, sigma_outlet_sleeve = 3.468E7, rho_outlet_sleeve = 2530.4, Cp_inlet_sleeve = 913.17, k_inlet_sleeve = 157.71, sigma_inlet_sleeve = 4.1513E7, rho_inlet_sleeve = 2604.4) (degC), Point: 201Temperature (Cp_Al = 854.36, k_Al = 143.5, sigma_Al = 4.0043E7, rho_Al = 2644.6, Cp_inlet = 913.9, k_inlet = 157.47, sigma_inlet = 3.4004E7, rho_inlet = 2433.5, Cp_outlet = 841.19, k_outlet = 150.41, sigma_outlet = 3.8259E7, rho_outlet = 2594, Cp_outlet_sleeve = 810.41, k_outlet_sleeve = 162.32, sigma_outlet_sleeve = 3.468E7, rho_outlet_sleeve = 2530.4, Cp_inlet_sleeve = 913.17, k_inlet_sleeve = 157.71, sigma_inlet_sleeve = 4.1513E7, rho_inlet_sleeve = 2604.4) (degC), Point: 210Temperature (Cp_Al = 854.36, k_Al = 143.5, sigma_Al = 4.0043E7, rho_Al = 2644.6, Cp_inlet = 913.9, k_inlet = 157.47, sigma_inlet = 3.4004E7, rho_inlet = 2433.5, Cp_outlet = 841.19, k_outlet = 150.41, sigma_outlet = 3.8259E7, rho_outlet = 2594, Cp_outlet_sleeve = 810.41, k_outlet_sleeve = 162.32, sigma_outlet_sleeve = 3.468E7, rho_outlet_sleeve = 2530.4, Cp_inlet_sleeve = 913.17, k_inlet_sleeve = 157.71, sigma_inlet_sleeve = 4.1513E7, rho_inlet_sleeve = 2604.4) (degC), Point: 213Temperature (Cp_Al = 854.36, k_Al = 143.5, sigma_Al = 4.0043E7, rho_Al = 2644.6, Cp_inlet = 913.9, k_inlet = 157.47, sigma_inlet = 3.4004E7, rho_inlet = 2433.5, Cp_outlet = 841.19, k_outlet = 150.41, sigma_outlet = 3.8259E7, rho_outlet = 2594, Cp_outlet_sleeve = 810.41, k_outlet_sleeve = 162.32, sigma_outlet_sleeve = 3.468E7, rho_outlet_sleeve = 2530.4, Cp_inlet_sleeve = 913.17, k_inlet_sleeve = 157.71, sigma_inlet_sleeve = 4.1513E7, rho_inlet_sleeve = 2604.4) (degC), Point: 215Temperature (Cp_Al = 854.36, k_Al = 143.5, sigma_Al = 4.0043E7, rho_Al = 2644.6, Cp_inlet = 913.9, k_inlet = 157.47, sigma_inlet = 3.4004E7, rho_inlet = 2433.5, Cp_outlet = 841.19, k_outlet = 150.41, sigma_outlet = 3.8259E7, rho_outlet = 2594, Cp_outlet_sleeve = 810.41, k_outlet_sleeve = 162.32, sigma_outlet_sleeve = 3.468E7, rho_outlet_sleeve = 2530.4, Cp_inlet_sleeve = 913.17, k_inlet_sleeve = 157.71, sigma_inlet_sleeve = 4.1513E7, rho_inlet_sleeve = 2604.4) (degC), Point: 229Temperature (Cp_Al = 854.36, k_Al = 143.5, sigma_Al = 4.0043E7, rho_Al = 2644.6, Cp_inlet = 913.9, k_inlet = 157.47, sigma_inlet = 3.4004E7, rho_inlet = 2433.5, Cp_outlet = 841.19, k_outlet = 150.41, sigma_outlet = 3.8259E7, rho_outlet = 2594, Cp_outlet_sleeve = 810.41, k_outlet_sleeve = 162.32, sigma_outlet_sleeve = 3.468E7, rho_outlet_sleeve = 2530.4, Cp_inlet_sleeve = 913.17, k_inlet_sleeve = 157.71, sigma_inlet_sleeve = 4.1513E7, rho_inlet_sleeve = 2604.4) (degC), Point: 232Temperature (Cp_Al = 854.36, k_Al = 143.5, sigma_Al = 4.0043E7, rho_Al = 2644.6, Cp_inlet = 913.9, k_inlet = 157.47, sigma_inlet = 3.4004E7, rho_inlet = 2433.5, Cp_outlet = 841.19, k_outlet = 150.41, sigma_outlet = 3.8259E7, rho_outlet = 2594, Cp_outlet_sleeve = 810.41, k_outlet_sleeve = 162.32, sigma_outlet_sleeve = 3.468E7, rho_outlet_sleeve = 2530.4, Cp_inlet_sleeve = 913.17, k_inlet_sleeve = 157.71, sigma_inlet_sleeve = 4.1513E7, rho_inlet_sleeve = 2604.4) (degC), Point: 239Temperature (Cp_Al = 854.36, k_Al = 143.5, sigma_Al = 4.0043E7, rho_Al = 2644.6, Cp_inlet = 913.9, k_inlet = 157.47, sigma_inlet = 3.4004E7, rho_inlet = 2433.5, Cp_outlet = 841.19, k_outlet = 150.41, sigma_outlet = 3.8259E7, rho_outlet = 2594, Cp_outlet_sleeve = 810.41, k_outlet_sleeve = 162.32, sigma_outlet_sleeve = 3.468E7, rho_outlet_sleeve = 2530.4, Cp_inlet_sleeve = 913.17, k_inlet_sleeve = 157.71, sigma_inlet_sleeve = 4.1513E7, rho_inlet_sleeve = 2604.4) (degC), Point: 252Temperature (Cp_Al = 854.36, k_Al = 143.5, sigma_Al = 4.0043E7, rho_Al = 2644.6, Cp_inlet = 913.9, k_inlet = 157.47, sigma_inlet = 3.4004E7, rho_inlet = 2433.5, Cp_outlet = 841.19, k_outlet = 150.41, sigma_outlet = 3.8259E7, rho_outlet = 2594, Cp_outlet_sleeve = 810.41, k_outlet_sleeve = 162.32, sigma_outlet_sleeve = 3.468E7, rho_outlet_sleeve = 2530.4, Cp_inlet_sleeve = 913.17, k_inlet_sleeve = 157.71, sigma_inlet_sleeve = 4.1513E7, rho_inlet_sleeve = 2604.4) (degC), Point: 261Temperature (Cp_Al = 854.36, k_Al = 143.5, sigma_Al = 4.0043E7, rho_Al = 2644.6, Cp_inlet = 913.9, k_inlet = 157.47, sigma_inlet = 3.4004E7, rho_inlet = 2433.5, Cp_outlet = 841.19, k_outlet = 150.41, sigma_outlet = 3.8259E7, rho_outlet = 2594, Cp_outlet_sleeve = 810.41, k_outlet_sleeve = 162.32, sigma_outlet_sleeve = 3.468E7, rho_outlet_sleeve = 2530.4, Cp_inlet_sleeve = 913.17, k_inlet_sleeve = 157.71, sigma_inlet_sleeve = 4.1513E7, rho_inlet_sleeve = 2604.4) (degC), Point: 270Temperature (Cp_Al = 854.36, k_Al = 143.5, sigma_Al = 4.0043E7, rho_Al = 2644.6, Cp_inlet = 913.9, k_inlet = 157.47, sigma_inlet = 3.4004E7, rho_inlet = 2433.5, Cp_outlet = 841.19, k_outlet = 150.41, sigma_outlet = 3.8259E7, rho_outlet = 2594, Cp_outlet_sleeve = 810.41, k_outlet_sleeve = 162.32, sigma_outlet_sleeve = 3.468E7, rho_outlet_sleeve = 2530.4, Cp_inlet_sleeve = 913.17, k_inlet_sleeve = 157.71, sigma_inlet_sleeve = 4.1513E7, rho_inlet_sleeve = 2604.4) (degC), Point: 273Temperature (Cp_Al = 854.36, k_Al = 143.5, sigma_Al = 4.0043E7, rho_Al = 2644.6, Cp_inlet = 913.9, k_inlet = 157.47, sigma_inlet = 3.4004E7, rho_inlet = 2433.5, Cp_outlet = 841.19, k_outlet = 150.41, sigma_outlet = 3.8259E7, rho_outlet = 2594, Cp_outlet_sleeve = 810.41, k_outlet_sleeve = 162.32, sigma_outlet_sleeve = 3.468E7, rho_outlet_sleeve = 2530.4, Cp_inlet_sleeve = 913.17, k_inlet_sleeve = 157.71, sigma_inlet_sleeve = 4.1513E7, rho_inlet_sleeve = 2604.4) (degC), Point: 275
0                        21.65633262959443        21.013426583707258       21.131928663003066       21.008653035371537       21.013707826885934       21.10828690467048        21.008789364877543       21.026364068885528       21.001427858293482       21.02461782168035        21.00123529634834        21.000643747179538       21.009510050610686       21.000109347197167       21.007824581133548       21.02158132574607        21.000055303905356       21.011567344679236       21.000734252219218       21.00029856370014        21.001777312639263       21.000177438775097       21.00027118647182        21.008777571213784       21.11878675711199        21.013157209268627       21.55571612908983        21.00853815646593        21.144805685672566       21.01664597032027        21.730089008212133
3                        314.16680855664924       280.10565312293056       289.5074056355347        284.81767388356127       263.92539393197603       276.64716383804375       274.966356271387         263.2020984180858        258.3710609578487        269.2954877644636        271.34461293025595       263.1318178492976        260.4593591568357        247.83942585645582       252.70531702002324       246.81028875272807       242.2602595961573        251.13004959236525       252.55005448939596       246.23865292442053       245.3973227078202        238.9765934015129        241.75487897556343       276.97289098880594       279.0907762899192        265.4845409576668        298.9737097165531        286.37824953515565       291.31223085042654       279.2496721635348        318.2547320238673
6                        439.8420659064212        404.24966826376874       417.51444289293204       413.57335463525044       388.147938404833         405.7509793154936        405.10962464103545       389.2369497317054        382.4386864397974        398.2976677699995        401.3916053731599        393.1577463977786        389.4439326364154        371.8803136062369        378.7046306329904        371.1788383902176        365.0228408247299        377.95090358454706       380.15836076647486       373.81379845644415       372.24835300398934       361.9576677309574        366.28237517382513       406.9124799832342        407.9639529142978        389.3686023757476        424.8433468135686        412.7038108271365        416.87031488650246       400.6926201542393        441.3458257288287
9                        513.5221224895416        477.0207313893287        493.02688759259956       489.83738488920983       458.91194842147183       479.76632595046726       480.0249225982693        461.0223700055334        453.1081618933715        472.2555452189098        476.2531604394445        468.01021162949166       463.3935023581854        442.5367105427872        450.46809315086864       443.9746794205489        436.8622788067836        452.66203205103875       455.6507001963504        449.42395860980287       447.1095919175999        434.0443943131189        439.29381209028884       481.7201815007538        481.8480507183616        459.9289480152165        496.529514175954         487.515059137805         490.90173516285506       471.789511470613         513.4319156331038
12                       564.134843807614         527.0215324986536        545.0308503561755        542.4555811339784        506.560291870234         529.6704101293855        530.616803912058         509.32409259818564       500.6955338099748        522.1236920823711        526.811677925396         518.5663317422861        513.2591803719275        490.1177137515044        498.756940412021         494.06343364875306       486.3076174511798        504.19970318457956       507.8244999670684        501.6770144047572        498.74046648848037       483.63044075373637       489.50556582474417       532.2499050475174        531.671784111804         507.4478796749612        544.7688355740376        539.3076329146108        542.0492201742594        520.7827692822259        563.0937482103086
15                       602.3838259141696        564.8253896385862        584.3729033332833        582.300073116619         542.1009163778698        566.8547909378517        568.3307263914688        545.317146269149         536.1949816034701        559.2844186498554        564.503779843951         556.2595766339712        550.4207048537705        525.6149052824536        534.7428358801262        531.9802912036535        523.7576161120575        543.2513210355229        547.3951990974684        541.3276317579829        537.8765176666072        521.1860965902164        527.5181033992768        569.9267419121333        568.8050741988479        542.9030815736094        580.7214642245207        578.6746596581312        580.8841780447775        557.9591371192035        600.7568731940561
18                       632.9296685993475        595.0330776046144        615.8050154864067        614.1521353951819        570.1908841347301        596.1871564350023        598.0820106156722        573.7340462530882        564.2567367271437        588.6010833701511        594.2406808795881        585.9992371187747        579.7396588057502        553.676508410061         563.1557516202082        562.3098980858933        553.7336703086779        574.4982989553052        579.0751526470992        573.0873115813428        569.202802751581         551.2485672259024        557.9284883388063        599.6563325701212        598.1047347245777        570.9358584955241        609.1117604593351        610.2562969511898        612.0186708443636        587.772188734494         630.9392664753558
21                       659.0100953365637        620.8406719204617        642.6310391903735        641.3377560680519        594.0468129468904        621.036838490977         623.276806362037         597.8439885118507        588.0924772832803        613.4398873071684        619.425568894736         611.1874640839087        604.5813100799055        577.5130957588542        587.2633935646805        588.2402348656252        579.3797400935499        601.1984155244146        606.1453746898413        600.2336903589949        595.9766263422403        576.9692222382296        583.929882900609         624.8382224110011        622.932567177068         594.7517768399244        633.2033559546842        637.2834971982096        638.662201912762         613.3181490443138        656.782112486586
24                       682.2898084373395        643.8915951788603        666.5524171337833        665.5717097594415        615.3174319163869        643.1364377470817        645.669877534204         619.3227317163671        609.3481754110211        635.5317145078069        641.8115934137195        633.5769441940225        626.676121675875         598.7701045390581        608.7407674983733        611.4106824824246        602.3126213596875        625.029826071887         630.2979834107709        624.4565181780476        619.8751246695464        599.9674988124481        607.1632631861963        647.2237013938452        645.0171189052157        615.9934763363129        654.6689872846393        661.4224641791304        662.4677145471817        636.1882062080143        679.8998715116246
27                       703.6157161374126        665.0221888001132        688.4356286528464        687.7280080457521        634.8468044307431        663.3735301127024        666.1608602901758        639.0277243995873        628.8663241558702        655.7631748223152        662.297489185485         654.0662005029734        646.9105069663408        618.2897601948708        628.4449411046766        632.6547996537787        623.3545648174584        646.8468565187233        652.3952327035784        646.6172663441432        641.7524163258549        621.0670085444954        628.4630917739855        667.7105103928513        665.2437291288004        635.5015884724507        674.3644287263054        683.5224480828567        684.276694516725         657.1910017168568        701.1130077215454
