% Model:              brazing.mph
% Version:            COMSOL 5.3.0.223
% Date:               Oct 24 2018, 04:17
% Table:              Table 3 - 
% Time (s)               Temperature (Cp_Al = 737.95, k_Al = 115.61, sigma_Al = 5.6514E7, rho_Al = 2669.5, Cp_inlet = 803.49, k_inlet = 184.6, sigma_inlet = 2.5524E7, rho_inlet = 2029.8, Cp_outlet = 960.42, k_outlet = 120.27, sigma_outlet = 4.8938E7, rho_outlet = 2114.7, Cp_outlet_sleeve = 584.87, k_outlet_sleeve = 163.83, sigma_outlet_sleeve = 3.1875E7, rho_outlet_sleeve = 2872.7, Cp_inlet_sleeve = 835.01, k_inlet_sleeve = 124.9, sigma_inlet_sleeve = 5.5144E7, rho_inlet_sleeve = 2617.3) (degC), Point: 55Temperature (Cp_Al = 737.95, k_Al = 115.61, sigma_Al = 5.6514E7, rho_Al = 2669.5, Cp_inlet = 803.49, k_inlet = 184.6, sigma_inlet = 2.5524E7, rho_inlet = 2029.8, Cp_outlet = 960.42, k_outlet = 120.27, sigma_outlet = 4.8938E7, rho_outlet = 2114.7, Cp_outlet_sleeve = 584.87, k_outlet_sleeve = 163.83, sigma_outlet_sleeve = 3.1875E7, rho_outlet_sleeve = 2872.7, Cp_inlet_sleeve = 835.01, k_inlet_sleeve = 124.9, sigma_inlet_sleeve = 5.5144E7, rho_inlet_sleeve = 2617.3) (degC), Point: 56Temperature (Cp_Al = 737.95, k_Al = 115.61, sigma_Al = 5.6514E7, rho_Al = 2669.5, Cp_inlet = 803.49, k_inlet = 184.6, sigma_inlet = 2.5524E7, rho_inlet = 2029.8, Cp_outlet = 960.42, k_outlet = 120.27, sigma_outlet = 4.8938E7, rho_outlet = 2114.7, Cp_outlet_sleeve = 584.87, k_outlet_sleeve = 163.83, sigma_outlet_sleeve = 3.1875E7, rho_outlet_sleeve = 2872.7, Cp_inlet_sleeve = 835.01, k_inlet_sleeve = 124.9, sigma_inlet_sleeve = 5.5144E7, rho_inlet_sleeve = 2617.3) (degC), Point: 60Temperature (Cp_Al = 737.95, k_Al = 115.61, sigma_Al = 5.6514E7, rho_Al = 2669.5, Cp_inlet = 803.49, k_inlet = 184.6, sigma_inlet = 2.5524E7, rho_inlet = 2029.8, Cp_outlet = 960.42, k_outlet = 120.27, sigma_outlet = 4.8938E7, rho_outlet = 2114.7, Cp_outlet_sleeve = 584.87, k_outlet_sleeve = 163.83, sigma_outlet_sleeve = 3.1875E7, rho_outlet_sleeve = 2872.7, Cp_inlet_sleeve = 835.01, k_inlet_sleeve = 124.9, sigma_inlet_sleeve = 5.5144E7, rho_inlet_sleeve = 2617.3) (degC), Point: 69Temperature (Cp_Al = 737.95, k_Al = 115.61, sigma_Al = 5.6514E7, rho_Al = 2669.5, Cp_inlet = 803.49, k_inlet = 184.6, sigma_inlet = 2.5524E7, rho_inlet = 2029.8, Cp_outlet = 960.42, k_outlet = 120.27, sigma_outlet = 4.8938E7, rho_outlet = 2114.7, Cp_outlet_sleeve = 584.87, k_outlet_sleeve = 163.83, sigma_outlet_sleeve = 3.1875E7, rho_outlet_sleeve = 2872.7, Cp_inlet_sleeve = 835.01, k_inlet_sleeve = 124.9, sigma_inlet_sleeve = 5.5144E7, rho_inlet_sleeve = 2617.3) (degC), Point: 90Temperature (Cp_Al = 737.95, k_Al = 115.61, sigma_Al = 5.6514E7, rho_Al = 2669.5, Cp_inlet = 803.49, k_inlet = 184.6, sigma_inlet = 2.5524E7, rho_inlet = 2029.8, Cp_outlet = 960.42, k_outlet = 120.27, sigma_outlet = 4.8938E7, rho_outlet = 2114.7, Cp_outlet_sleeve = 584.87, k_outlet_sleeve = 163.83, sigma_outlet_sleeve = 3.1875E7, rho_outlet_sleeve = 2872.7, Cp_inlet_sleeve = 835.01, k_inlet_sleeve = 124.9, sigma_inlet_sleeve = 5.5144E7, rho_inlet_sleeve = 2617.3) (degC), Point: 98Temperature (Cp_Al = 737.95, k_Al = 115.61, sigma_Al = 5.6514E7, rho_Al = 2669.5, Cp_inlet = 803.49, k_inlet = 184.6, sigma_inlet = 2.5524E7, rho_inlet = 2029.8, Cp_outlet = 960.42, k_outlet = 120.27, sigma_outlet = 4.8938E7, rho_outlet = 2114.7, Cp_outlet_sleeve = 584.87, k_outlet_sleeve = 163.83, sigma_outlet_sleeve = 3.1875E7, rho_outlet_sleeve = 2872.7, Cp_inlet_sleeve = 835.01, k_inlet_sleeve = 124.9, sigma_inlet_sleeve = 5.5144E7, rho_inlet_sleeve = 2617.3) (degC), Point: 102Temperature (Cp_Al = 737.95, k_Al = 115.61, sigma_Al = 5.6514E7, rho_Al = 2669.5, Cp_inlet = 803.49, k_inlet = 184.6, sigma_inlet = 2.5524E7, rho_inlet = 2029.8, Cp_outlet = 960.42, k_outlet = 120.27, sigma_outlet = 4.8938E7, rho_outlet = 2114.7, Cp_outlet_sleeve = 584.87, k_outlet_sleeve = 163.83, sigma_outlet_sleeve = 3.1875E7, rho_outlet_sleeve = 2872.7, Cp_inlet_sleeve = 835.01, k_inlet_sleeve = 124.9, sigma_inlet_sleeve = 5.5144E7, rho_inlet_sleeve = 2617.3) (degC), Point: 127Temperature (Cp_Al = 737.95, k_Al = 115.61, sigma_Al = 5.6514E7, rho_Al = 2669.5, Cp_inlet = 803.49, k_inlet = 184.6, sigma_inlet = 2.5524E7, rho_inlet = 2029.8, Cp_outlet = 960.42, k_outlet = 120.27, sigma_outlet = 4.8938E7, rho_outlet = 2114.7, Cp_outlet_sleeve = 584.87, k_outlet_sleeve = 163.83, sigma_outlet_sleeve = 3.1875E7, rho_outlet_sleeve = 2872.7, Cp_inlet_sleeve = 835.01, k_inlet_sleeve = 124.9, sigma_inlet_sleeve = 5.5144E7, rho_inlet_sleeve = 2617.3) (degC), Point: 128Temperature (Cp_Al = 737.95, k_Al = 115.61, sigma_Al = 5.6514E7, rho_Al = 2669.5, Cp_inlet = 803.49, k_inlet = 184.6, sigma_inlet = 2.5524E7, rho_inlet = 2029.8, Cp_outlet = 960.42, k_outlet = 120.27, sigma_outlet = 4.8938E7, rho_outlet = 2114.7, Cp_outlet_sleeve = 584.87, k_outlet_sleeve = 163.83, sigma_outlet_sleeve = 3.1875E7, rho_outlet_sleeve = 2872.7, Cp_inlet_sleeve = 835.01, k_inlet_sleeve = 124.9, sigma_inlet_sleeve = 5.5144E7, rho_inlet_sleeve = 2617.3) (degC), Point: 134Temperature (Cp_Al = 737.95, k_Al = 115.61, sigma_Al = 5.6514E7, rho_Al = 2669.5, Cp_inlet = 803.49, k_inlet = 184.6, sigma_inlet = 2.5524E7, rho_inlet = 2029.8, Cp_outlet = 960.42, k_outlet = 120.27, sigma_outlet = 4.8938E7, rho_outlet = 2114.7, Cp_outlet_sleeve = 584.87, k_outlet_sleeve = 163.83, sigma_outlet_sleeve = 3.1875E7, rho_outlet_sleeve = 2872.7, Cp_inlet_sleeve = 835.01, k_inlet_sleeve = 124.9, sigma_inlet_sleeve = 5.5144E7, rho_inlet_sleeve = 2617.3) (degC), Point: 138Temperature (Cp_Al = 737.95, k_Al = 115.61, sigma_Al = 5.6514E7, rho_Al = 2669.5, Cp_inlet = 803.49, k_inlet = 184.6, sigma_inlet = 2.5524E7, rho_inlet = 2029.8, Cp_outlet = 960.42, k_outlet = 120.27, sigma_outlet = 4.8938E7, rho_outlet = 2114.7, Cp_outlet_sleeve = 584.87, k_outlet_sleeve = 163.83, sigma_outlet_sleeve = 3.1875E7, rho_outlet_sleeve = 2872.7, Cp_inlet_sleeve = 835.01, k_inlet_sleeve = 124.9, sigma_inlet_sleeve = 5.5144E7, rho_inlet_sleeve = 2617.3) (degC), Point: 151Temperature (Cp_Al = 737.95, k_Al = 115.61, sigma_Al = 5.6514E7, rho_Al = 2669.5, Cp_inlet = 803.49, k_inlet = 184.6, sigma_inlet = 2.5524E7, rho_inlet = 2029.8, Cp_outlet = 960.42, k_outlet = 120.27, sigma_outlet = 4.8938E7, rho_outlet = 2114.7, Cp_outlet_sleeve = 584.87, k_outlet_sleeve = 163.83, sigma_outlet_sleeve = 3.1875E7, rho_outlet_sleeve = 2872.7, Cp_inlet_sleeve = 835.01, k_inlet_sleeve = 124.9, sigma_inlet_sleeve = 5.5144E7, rho_inlet_sleeve = 2617.3) (degC), Point: 154Temperature (Cp_Al = 737.95, k_Al = 115.61, sigma_Al = 5.6514E7, rho_Al = 2669.5, Cp_inlet = 803.49, k_inlet = 184.6, sigma_inlet = 2.5524E7, rho_inlet = 2029.8, Cp_outlet = 960.42, k_outlet = 120.27, sigma_outlet = 4.8938E7, rho_outlet = 2114.7, Cp_outlet_sleeve = 584.87, k_outlet_sleeve = 163.83, sigma_outlet_sleeve = 3.1875E7, rho_outlet_sleeve = 2872.7, Cp_inlet_sleeve = 835.01, k_inlet_sleeve = 124.9, sigma_inlet_sleeve = 5.5144E7, rho_inlet_sleeve = 2617.3) (degC), Point: 159Temperature (Cp_Al = 737.95, k_Al = 115.61, sigma_Al = 5.6514E7, rho_Al = 2669.5, Cp_inlet = 803.49, k_inlet = 184.6, sigma_inlet = 2.5524E7, rho_inlet = 2029.8, Cp_outlet = 960.42, k_outlet = 120.27, sigma_outlet = 4.8938E7, rho_outlet = 2114.7, Cp_outlet_sleeve = 584.87, k_outlet_sleeve = 163.83, sigma_outlet_sleeve = 3.1875E7, rho_outlet_sleeve = 2872.7, Cp_inlet_sleeve = 835.01, k_inlet_sleeve = 124.9, sigma_inlet_sleeve = 5.5144E7, rho_inlet_sleeve = 2617.3) (degC), Point: 163Temperature (Cp_Al = 737.95, k_Al = 115.61, sigma_Al = 5.6514E7, rho_Al = 2669.5, Cp_inlet = 803.49, k_inlet = 184.6, sigma_inlet = 2.5524E7, rho_inlet = 2029.8, Cp_outlet = 960.42, k_outlet = 120.27, sigma_outlet = 4.8938E7, rho_outlet = 2114.7, Cp_outlet_sleeve = 584.87, k_outlet_sleeve = 163.83, sigma_outlet_sleeve = 3.1875E7, rho_outlet_sleeve = 2872.7, Cp_inlet_sleeve = 835.01, k_inlet_sleeve = 124.9, sigma_inlet_sleeve = 5.5144E7, rho_inlet_sleeve = 2617.3) (degC), Point: 167Temperature (Cp_Al = 737.95, k_Al = 115.61, sigma_Al = 5.6514E7, rho_Al = 2669.5, Cp_inlet = 803.49, k_inlet = 184.6, sigma_inlet = 2.5524E7, rho_inlet = 2029.8, Cp_outlet = 960.42, k_outlet = 120.27, sigma_outlet = 4.8938E7, rho_outlet = 2114.7, Cp_outlet_sleeve = 584.87, k_outlet_sleeve = 163.83, sigma_outlet_sleeve = 3.1875E7, rho_outlet_sleeve = 2872.7, Cp_inlet_sleeve = 835.01, k_inlet_sleeve = 124.9, sigma_inlet_sleeve = 5.5144E7, rho_inlet_sleeve = 2617.3) (degC), Point: 168Temperature (Cp_Al = 737.95, k_Al = 115.61, sigma_Al = 5.6514E7, rho_Al = 2669.5, Cp_inlet = 803.49, k_inlet = 184.6, sigma_inlet = 2.5524E7, rho_inlet = 2029.8, Cp_outlet = 960.42, k_outlet = 120.27, sigma_outlet = 4.8938E7, rho_outlet = 2114.7, Cp_outlet_sleeve = 584.87, k_outlet_sleeve = 163.83, sigma_outlet_sleeve = 3.1875E7, rho_outlet_sleeve = 2872.7, Cp_inlet_sleeve = 835.01, k_inlet_sleeve = 124.9, sigma_inlet_sleeve = 5.5144E7, rho_inlet_sleeve = 2617.3) (degC), Point: 172Temperature (Cp_Al = 737.95, k_Al = 115.61, sigma_Al = 5.6514E7, rho_Al = 2669.5, Cp_inlet = 803.49, k_inlet = 184.6, sigma_inlet = 2.5524E7, rho_inlet = 2029.8, Cp_outlet = 960.42, k_outlet = 120.27, sigma_outlet = 4.8938E7, rho_outlet = 2114.7, Cp_outlet_sleeve = 584.87, k_outlet_sleeve = 163.83, sigma_outlet_sleeve = 3.1875E7, rho_outlet_sleeve = 2872.7, Cp_inlet_sleeve = 835.01, k_inlet_sleeve = 124.9, sigma_inlet_sleeve = 5.5144E7, rho_inlet_sleeve = 2617.3) (degC), Point: 181Temperature (Cp_Al = 737.95, k_Al = 115.61, sigma_Al = 5.6514E7, rho_Al = 2669.5, Cp_inlet = 803.49, k_inlet = 184.6, sigma_inlet = 2.5524E7, rho_inlet = 2029.8, Cp_outlet = 960.42, k_outlet = 120.27, sigma_outlet = 4.8938E7, rho_outlet = 2114.7, Cp_outlet_sleeve = 584.87, k_outlet_sleeve = 163.83, sigma_outlet_sleeve = 3.1875E7, rho_outlet_sleeve = 2872.7, Cp_inlet_sleeve = 835.01, k_inlet_sleeve = 124.9, sigma_inlet_sleeve = 5.5144E7, rho_inlet_sleeve = 2617.3) (degC), Point: 201Temperature (Cp_Al = 737.95, k_Al = 115.61, sigma_Al = 5.6514E7, rho_Al = 2669.5, Cp_inlet = 803.49, k_inlet = 184.6, sigma_inlet = 2.5524E7, rho_inlet = 2029.8, Cp_outlet = 960.42, k_outlet = 120.27, sigma_outlet = 4.8938E7, rho_outlet = 2114.7, Cp_outlet_sleeve = 584.87, k_outlet_sleeve = 163.83, sigma_outlet_sleeve = 3.1875E7, rho_outlet_sleeve = 2872.7, Cp_inlet_sleeve = 835.01, k_inlet_sleeve = 124.9, sigma_inlet_sleeve = 5.5144E7, rho_inlet_sleeve = 2617.3) (degC), Point: 210Temperature (Cp_Al = 737.95, k_Al = 115.61, sigma_Al = 5.6514E7, rho_Al = 2669.5, Cp_inlet = 803.49, k_inlet = 184.6, sigma_inlet = 2.5524E7, rho_inlet = 2029.8, Cp_outlet = 960.42, k_outlet = 120.27, sigma_outlet = 4.8938E7, rho_outlet = 2114.7, Cp_outlet_sleeve = 584.87, k_outlet_sleeve = 163.83, sigma_outlet_sleeve = 3.1875E7, rho_outlet_sleeve = 2872.7, Cp_inlet_sleeve = 835.01, k_inlet_sleeve = 124.9, sigma_inlet_sleeve = 5.5144E7, rho_inlet_sleeve = 2617.3) (degC), Point: 213Temperature (Cp_Al = 737.95, k_Al = 115.61, sigma_Al = 5.6514E7, rho_Al = 2669.5, Cp_inlet = 803.49, k_inlet = 184.6, sigma_inlet = 2.5524E7, rho_inlet = 2029.8, Cp_outlet = 960.42, k_outlet = 120.27, sigma_outlet = 4.8938E7, rho_outlet = 2114.7, Cp_outlet_sleeve = 584.87, k_outlet_sleeve = 163.83, sigma_outlet_sleeve = 3.1875E7, rho_outlet_sleeve = 2872.7, Cp_inlet_sleeve = 835.01, k_inlet_sleeve = 124.9, sigma_inlet_sleeve = 5.5144E7, rho_inlet_sleeve = 2617.3) (degC), Point: 215Temperature (Cp_Al = 737.95, k_Al = 115.61, sigma_Al = 5.6514E7, rho_Al = 2669.5, Cp_inlet = 803.49, k_inlet = 184.6, sigma_inlet = 2.5524E7, rho_inlet = 2029.8, Cp_outlet = 960.42, k_outlet = 120.27, sigma_outlet = 4.8938E7, rho_outlet = 2114.7, Cp_outlet_sleeve = 584.87, k_outlet_sleeve = 163.83, sigma_outlet_sleeve = 3.1875E7, rho_outlet_sleeve = 2872.7, Cp_inlet_sleeve = 835.01, k_inlet_sleeve = 124.9, sigma_inlet_sleeve = 5.5144E7, rho_inlet_sleeve = 2617.3) (degC), Point: 229Temperature (Cp_Al = 737.95, k_Al = 115.61, sigma_Al = 5.6514E7, rho_Al = 2669.5, Cp_inlet = 803.49, k_inlet = 184.6, sigma_inlet = 2.5524E7, rho_inlet = 2029.8, Cp_outlet = 960.42, k_outlet = 120.27, sigma_outlet = 4.8938E7, rho_outlet = 2114.7, Cp_outlet_sleeve = 584.87, k_outlet_sleeve = 163.83, sigma_outlet_sleeve = 3.1875E7, rho_outlet_sleeve = 2872.7, Cp_inlet_sleeve = 835.01, k_inlet_sleeve = 124.9, sigma_inlet_sleeve = 5.5144E7, rho_inlet_sleeve = 2617.3) (degC), Point: 232Temperature (Cp_Al = 737.95, k_Al = 115.61, sigma_Al = 5.6514E7, rho_Al = 2669.5, Cp_inlet = 803.49, k_inlet = 184.6, sigma_inlet = 2.5524E7, rho_inlet = 2029.8, Cp_outlet = 960.42, k_outlet = 120.27, sigma_outlet = 4.8938E7, rho_outlet = 2114.7, Cp_outlet_sleeve = 584.87, k_outlet_sleeve = 163.83, sigma_outlet_sleeve = 3.1875E7, rho_outlet_sleeve = 2872.7, Cp_inlet_sleeve = 835.01, k_inlet_sleeve = 124.9, sigma_inlet_sleeve = 5.5144E7, rho_inlet_sleeve = 2617.3) (degC), Point: 239Temperature (Cp_Al = 737.95, k_Al = 115.61, sigma_Al = 5.6514E7, rho_Al = 2669.5, Cp_inlet = 803.49, k_inlet = 184.6, sigma_inlet = 2.5524E7, rho_inlet = 2029.8, Cp_outlet = 960.42, k_outlet = 120.27, sigma_outlet = 4.8938E7, rho_outlet = 2114.7, Cp_outlet_sleeve = 584.87, k_outlet_sleeve = 163.83, sigma_outlet_sleeve = 3.1875E7, rho_outlet_sleeve = 2872.7, Cp_inlet_sleeve = 835.01, k_inlet_sleeve = 124.9, sigma_inlet_sleeve = 5.5144E7, rho_inlet_sleeve = 2617.3) (degC), Point: 252Temperature (Cp_Al = 737.95, k_Al = 115.61, sigma_Al = 5.6514E7, rho_Al = 2669.5, Cp_inlet = 803.49, k_inlet = 184.6, sigma_inlet = 2.5524E7, rho_inlet = 2029.8, Cp_outlet = 960.42, k_outlet = 120.27, sigma_outlet = 4.8938E7, rho_outlet = 2114.7, Cp_outlet_sleeve = 584.87, k_outlet_sleeve = 163.83, sigma_outlet_sleeve = 3.1875E7, rho_outlet_sleeve = 2872.7, Cp_inlet_sleeve = 835.01, k_inlet_sleeve = 124.9, sigma_inlet_sleeve = 5.5144E7, rho_inlet_sleeve = 2617.3) (degC), Point: 261Temperature (Cp_Al = 737.95, k_Al = 115.61, sigma_Al = 5.6514E7, rho_Al = 2669.5, Cp_inlet = 803.49, k_inlet = 184.6, sigma_inlet = 2.5524E7, rho_inlet = 2029.8, Cp_outlet = 960.42, k_outlet = 120.27, sigma_outlet = 4.8938E7, rho_outlet = 2114.7, Cp_outlet_sleeve = 584.87, k_outlet_sleeve = 163.83, sigma_outlet_sleeve = 3.1875E7, rho_outlet_sleeve = 2872.7, Cp_inlet_sleeve = 835.01, k_inlet_sleeve = 124.9, sigma_inlet_sleeve = 5.5144E7, rho_inlet_sleeve = 2617.3) (degC), Point: 270Temperature (Cp_Al = 737.95, k_Al = 115.61, sigma_Al = 5.6514E7, rho_Al = 2669.5, Cp_inlet = 803.49, k_inlet = 184.6, sigma_inlet = 2.5524E7, rho_inlet = 2029.8, Cp_outlet = 960.42, k_outlet = 120.27, sigma_outlet = 4.8938E7, rho_outlet = 2114.7, Cp_outlet_sleeve = 584.87, k_outlet_sleeve = 163.83, sigma_outlet_sleeve = 3.1875E7, rho_outlet_sleeve = 2872.7, Cp_inlet_sleeve = 835.01, k_inlet_sleeve = 124.9, sigma_inlet_sleeve = 5.5144E7, rho_inlet_sleeve = 2617.3) (degC), Point: 273Temperature (Cp_Al = 737.95, k_Al = 115.61, sigma_Al = 5.6514E7, rho_Al = 2669.5, Cp_inlet = 803.49, k_inlet = 184.6, sigma_inlet = 2.5524E7, rho_inlet = 2029.8, Cp_outlet = 960.42, k_outlet = 120.27, sigma_outlet = 4.8938E7, rho_outlet = 2114.7, Cp_outlet_sleeve = 584.87, k_outlet_sleeve = 163.83, sigma_outlet_sleeve = 3.1875E7, rho_outlet_sleeve = 2872.7, Cp_inlet_sleeve = 835.01, k_inlet_sleeve = 124.9, sigma_inlet_sleeve = 5.5144E7, rho_inlet_sleeve = 2617.3) (degC), Point: 275
0                        21.755564206062616       21.016900668098913       21.130414728482037       21.008573170682553       21.01454065003759        21.10814622455615        21.010685947571915       21.033727533978777       21.001427019921096       21.02468010805819        21.001456452699188       21.000724396275643       21.009385698539916       21.00011086520658        21.00980088126704        21.02504804185355        21.000058986331226       21.011481259199854       21.00075330400813        21.000319068504325       21.001787300370836       21.000204221021704       21.000315905277432       21.01065698501918        21.118575354657423       21.01379524158324        21.687320521692925       21.00839808941987        21.143063584470156       21.020292877581085       21.840227658282117
3                        340.02800501246065       306.9025905206952        315.8989460501102        311.1615490387277        296.43543806434127       311.5439100088489        310.6830289817011        296.5959754720868        290.03448016454786       304.26088993114104       307.2579049115848        299.7316145539535        296.0887811628065        280.13556340535547       286.31667896552483       270.03927002779653       265.44807582957696       273.5517276388348        274.6050772621858        268.4051737677405        268.036385417475         262.5582395130534        265.37543422057945       312.57068228386265       313.88993503064285       298.052271673851         341.4203299848223        312.66650596884585       317.57461554702445       305.6077280979789        343.70295280420623
6                        471.8549706231412        437.10796177603584       450.5599427603097        446.7549600041958        437.0485127335718        456.5562840379072        456.48114126082316       439.1289460911303        430.4946952898474        449.1791355494755        452.9697286675166        445.43813411272765       441.00560943594974       420.5914666645483        428.8342556025732        400.2230156131992        393.92129080442044       406.7089037588239        408.7398017767115        402.7604839392287        401.4877668045506        391.5495064949148        396.0044775478714        458.19657626115475       458.7052135652383        438.35393137471306       483.8132307029798        445.4411915109408        449.39766469965537       432.6944368862737        472.545086204246
9                        548.2984654768668        512.6340978568802        529.0080058871099        526.030776561045         518.7624833410157        541.3545803612975        542.0443758582322        521.9653488561481        512.119172086409         533.9264521190947        538.486776013674         530.947323615947         525.7447763984784        502.1999518820422        511.64545424516075       475.6277565928874        468.3558914867077        484.20347310588033       487.09214011740903       481.26438290159433       479.1703345108082        466.2792482469937        471.669283588952         543.6658166571755        543.3868038057469        519.8715140093183        566.553753987667         522.990861493265         526.0947697948667        506.26823967560233       547.1251542854194
12                       601.476216665157         565.202853864359         583.6371537419327        581.3000972866652        575.4637148221487        600.3584220674894        601.6881436519975        579.4346588190928        568.7618225055963        592.8979355975364        598.1014788669803        590.5605063553999        584.7139386417574        558.8334253077846        569.09854789398          528.1869583205832        520.271490435735         538.2727756742892        541.8234213062682        536.0688730690955        533.3297029200183        518.3380003127941        524.3527369148861        603.2553529051884        602.3182607499028        576.4452893681306        623.9609521905372        577.2367646230816        579.6727755787583        557.6304034040014        599.1588633148091
15                       640.7138712591163        604.0197280961311        623.9559661269628        622.1199531024918        617.3670983427803        644.0473073815265        645.9146134143747        621.8933385294534        610.6267500652405        636.5664258968137        642.3098098926947        634.7703245813537        628.3829233830946        600.692965882973         611.5462376662109        567.0451062444979        558.6858192713129        578.2532837419377        582.3211500500139        576.6266742024329        573.375825896708         556.8395323589887        563.2886433246573        647.4516930547951        645.962454149518         618.2654837782708        666.3789042457793        617.4597686767437        619.3670973943841        595.700395678822         637.6947334939479
18                       672.0359263503194        635.0303694236922        656.1238219322464        654.6926948026796        650.9647358497386        679.0930141256728        681.4172604533792        655.9218791847414        644.1981140608289        671.598790341411         677.8007040152627        670.2637905857705        663.4168652016692        634.2608607078539        645.5666856056139        598.1193573896185        589.4324960016792        610.2038342442044        614.6891767256392        609.0538004561562        605.3854947843447        587.6514195082732        594.4234141698787        682.937419601957         680.9793671686703        651.8063876561373        700.3793479787461        649.6740340726564        651.1505964670024        626.2278697090868        668.5674582761957
21                       698.7996994961205        661.5475144916969        683.5825669627118        682.4906921101683        679.7474238104147        709.08606425434          711.8014663037366        685.0567079019878        672.9619607344188        701.5826525921818        708.1768814722659        700.64271020834          693.4025565742074        663.0221945468467        674.6951049264663        624.710505228823         615.7650635501759        637.5136237994172        642.3483856112754        636.769628282189         632.749545230809         614.0374495695205        621.0655846677515        713.3117681523611        710.9527402203861        680.548294541888         729.4936463156328        677.2455056228862        678.3595039044469        652.4140176873173        695.0265195297522
24                       722.6421367463398        685.1864335341093        708.0135254430134        707.2125682595629        705.3357877864378        735.6961167096995        738.7459834101302        710.9388116307338        698.536436494091         728.1861932214082        735.1157496382699        727.584162568088         720.0078740496267        688.5947286738448        700.5719605954137        648.4281664368135        639.2701126791435        661.8386100304234        666.9726304735395        661.4463746698927        657.1237123668097        637.5877993262446        644.8272541038101        740.2505368011666        737.5488830211331        706.1064593110589        755.360258929221         701.8206737364214        702.6232248356066        675.8186311764583        718.6554230428877
27                       744.4789542600078        706.8510434457282        730.3576308842072        729.8094603962653        728.6123793392028        759.8362153030624        763.1708507225138        734.4619622487186        721.8025770247607        752.3215728655779        759.5365511894357        752.007302081351         744.1448950848193        711.8593635774758        724.0907918984094        670.1722490797705        660.8349285016403        684.105147700883         689.4988622278053        684.0204911766017        679.43455364334          659.1918565083995        666.6098735039361        764.6721382678137        761.6789258302844        729.3602462246986        778.8715023928047        724.3212566208798        724.8531817402534        697.3134713446203        740.3390719954468
