% Model:              brazing.mph
% Version:            COMSOL 5.3.0.223
% Date:               Oct 24 2018, 06:36
% Table:              Table 3 - 
% Time (s)               Temperature (Cp_Al = 702.73, k_Al = 117.12, sigma_Al = 4.1588E7, rho_Al = 2786.4, Cp_inlet = 1011.1, k_inlet = 166.59, sigma_inlet = 3.0441E7, rho_inlet = 1862.1, Cp_outlet = 798.99, k_outlet = 123.62, sigma_outlet = 4.0585E7, rho_outlet = 2590.1, Cp_outlet_sleeve = 776.28, k_outlet_sleeve = 176.54, sigma_outlet_sleeve = 3.1936E7, rho_outlet_sleeve = 2293.4, Cp_inlet_sleeve = 883.27, k_inlet_sleeve = 167.36, sigma_inlet_sleeve = 4.5459E7, rho_inlet_sleeve = 2392.9) (degC), Point: 55Temperature (Cp_Al = 702.73, k_Al = 117.12, sigma_Al = 4.1588E7, rho_Al = 2786.4, Cp_inlet = 1011.1, k_inlet = 166.59, sigma_inlet = 3.0441E7, rho_inlet = 1862.1, Cp_outlet = 798.99, k_outlet = 123.62, sigma_outlet = 4.0585E7, rho_outlet = 2590.1, Cp_outlet_sleeve = 776.28, k_outlet_sleeve = 176.54, sigma_outlet_sleeve = 3.1936E7, rho_outlet_sleeve = 2293.4, Cp_inlet_sleeve = 883.27, k_inlet_sleeve = 167.36, sigma_inlet_sleeve = 4.5459E7, rho_inlet_sleeve = 2392.9) (degC), Point: 56Temperature (Cp_Al = 702.73, k_Al = 117.12, sigma_Al = 4.1588E7, rho_Al = 2786.4, Cp_inlet = 1011.1, k_inlet = 166.59, sigma_inlet = 3.0441E7, rho_inlet = 1862.1, Cp_outlet = 798.99, k_outlet = 123.62, sigma_outlet = 4.0585E7, rho_outlet = 2590.1, Cp_outlet_sleeve = 776.28, k_outlet_sleeve = 176.54, sigma_outlet_sleeve = 3.1936E7, rho_outlet_sleeve = 2293.4, Cp_inlet_sleeve = 883.27, k_inlet_sleeve = 167.36, sigma_inlet_sleeve = 4.5459E7, rho_inlet_sleeve = 2392.9) (degC), Point: 60Temperature (Cp_Al = 702.73, k_Al = 117.12, sigma_Al = 4.1588E7, rho_Al = 2786.4, Cp_inlet = 1011.1, k_inlet = 166.59, sigma_inlet = 3.0441E7, rho_inlet = 1862.1, Cp_outlet = 798.99, k_outlet = 123.62, sigma_outlet = 4.0585E7, rho_outlet = 2590.1, Cp_outlet_sleeve = 776.28, k_outlet_sleeve = 176.54, sigma_outlet_sleeve = 3.1936E7, rho_outlet_sleeve = 2293.4, Cp_inlet_sleeve = 883.27, k_inlet_sleeve = 167.36, sigma_inlet_sleeve = 4.5459E7, rho_inlet_sleeve = 2392.9) (degC), Point: 69Temperature (Cp_Al = 702.73, k_Al = 117.12, sigma_Al = 4.1588E7, rho_Al = 2786.4, Cp_inlet = 1011.1, k_inlet = 166.59, sigma_inlet = 3.0441E7, rho_inlet = 1862.1, Cp_outlet = 798.99, k_outlet = 123.62, sigma_outlet = 4.0585E7, rho_outlet = 2590.1, Cp_outlet_sleeve = 776.28, k_outlet_sleeve = 176.54, sigma_outlet_sleeve = 3.1936E7, rho_outlet_sleeve = 2293.4, Cp_inlet_sleeve = 883.27, k_inlet_sleeve = 167.36, sigma_inlet_sleeve = 4.5459E7, rho_inlet_sleeve = 2392.9) (degC), Point: 90Temperature (Cp_Al = 702.73, k_Al = 117.12, sigma_Al = 4.1588E7, rho_Al = 2786.4, Cp_inlet = 1011.1, k_inlet = 166.59, sigma_inlet = 3.0441E7, rho_inlet = 1862.1, Cp_outlet = 798.99, k_outlet = 123.62, sigma_outlet = 4.0585E7, rho_outlet = 2590.1, Cp_outlet_sleeve = 776.28, k_outlet_sleeve = 176.54, sigma_outlet_sleeve = 3.1936E7, rho_outlet_sleeve = 2293.4, Cp_inlet_sleeve = 883.27, k_inlet_sleeve = 167.36, sigma_inlet_sleeve = 4.5459E7, rho_inlet_sleeve = 2392.9) (degC), Point: 98Temperature (Cp_Al = 702.73, k_Al = 117.12, sigma_Al = 4.1588E7, rho_Al = 2786.4, Cp_inlet = 1011.1, k_inlet = 166.59, sigma_inlet = 3.0441E7, rho_inlet = 1862.1, Cp_outlet = 798.99, k_outlet = 123.62, sigma_outlet = 4.0585E7, rho_outlet = 2590.1, Cp_outlet_sleeve = 776.28, k_outlet_sleeve = 176.54, sigma_outlet_sleeve = 3.1936E7, rho_outlet_sleeve = 2293.4, Cp_inlet_sleeve = 883.27, k_inlet_sleeve = 167.36, sigma_inlet_sleeve = 4.5459E7, rho_inlet_sleeve = 2392.9) (degC), Point: 102Temperature (Cp_Al = 702.73, k_Al = 117.12, sigma_Al = 4.1588E7, rho_Al = 2786.4, Cp_inlet = 1011.1, k_inlet = 166.59, sigma_inlet = 3.0441E7, rho_inlet = 1862.1, Cp_outlet = 798.99, k_outlet = 123.62, sigma_outlet = 4.0585E7, rho_outlet = 2590.1, Cp_outlet_sleeve = 776.28, k_outlet_sleeve = 176.54, sigma_outlet_sleeve = 3.1936E7, rho_outlet_sleeve = 2293.4, Cp_inlet_sleeve = 883.27, k_inlet_sleeve = 167.36, sigma_inlet_sleeve = 4.5459E7, rho_inlet_sleeve = 2392.9) (degC), Point: 127Temperature (Cp_Al = 702.73, k_Al = 117.12, sigma_Al = 4.1588E7, rho_Al = 2786.4, Cp_inlet = 1011.1, k_inlet = 166.59, sigma_inlet = 3.0441E7, rho_inlet = 1862.1, Cp_outlet = 798.99, k_outlet = 123.62, sigma_outlet = 4.0585E7, rho_outlet = 2590.1, Cp_outlet_sleeve = 776.28, k_outlet_sleeve = 176.54, sigma_outlet_sleeve = 3.1936E7, rho_outlet_sleeve = 2293.4, Cp_inlet_sleeve = 883.27, k_inlet_sleeve = 167.36, sigma_inlet_sleeve = 4.5459E7, rho_inlet_sleeve = 2392.9) (degC), Point: 128Temperature (Cp_Al = 702.73, k_Al = 117.12, sigma_Al = 4.1588E7, rho_Al = 2786.4, Cp_inlet = 1011.1, k_inlet = 166.59, sigma_inlet = 3.0441E7, rho_inlet = 1862.1, Cp_outlet = 798.99, k_outlet = 123.62, sigma_outlet = 4.0585E7, rho_outlet = 2590.1, Cp_outlet_sleeve = 776.28, k_outlet_sleeve = 176.54, sigma_outlet_sleeve = 3.1936E7, rho_outlet_sleeve = 2293.4, Cp_inlet_sleeve = 883.27, k_inlet_sleeve = 167.36, sigma_inlet_sleeve = 4.5459E7, rho_inlet_sleeve = 2392.9) (degC), Point: 134Temperature (Cp_Al = 702.73, k_Al = 117.12, sigma_Al = 4.1588E7, rho_Al = 2786.4, Cp_inlet = 1011.1, k_inlet = 166.59, sigma_inlet = 3.0441E7, rho_inlet = 1862.1, Cp_outlet = 798.99, k_outlet = 123.62, sigma_outlet = 4.0585E7, rho_outlet = 2590.1, Cp_outlet_sleeve = 776.28, k_outlet_sleeve = 176.54, sigma_outlet_sleeve = 3.1936E7, rho_outlet_sleeve = 2293.4, Cp_inlet_sleeve = 883.27, k_inlet_sleeve = 167.36, sigma_inlet_sleeve = 4.5459E7, rho_inlet_sleeve = 2392.9) (degC), Point: 138Temperature (Cp_Al = 702.73, k_Al = 117.12, sigma_Al = 4.1588E7, rho_Al = 2786.4, Cp_inlet = 1011.1, k_inlet = 166.59, sigma_inlet = 3.0441E7, rho_inlet = 1862.1, Cp_outlet = 798.99, k_outlet = 123.62, sigma_outlet = 4.0585E7, rho_outlet = 2590.1, Cp_outlet_sleeve = 776.28, k_outlet_sleeve = 176.54, sigma_outlet_sleeve = 3.1936E7, rho_outlet_sleeve = 2293.4, Cp_inlet_sleeve = 883.27, k_inlet_sleeve = 167.36, sigma_inlet_sleeve = 4.5459E7, rho_inlet_sleeve = 2392.9) (degC), Point: 151Temperature (Cp_Al = 702.73, k_Al = 117.12, sigma_Al = 4.1588E7, rho_Al = 2786.4, Cp_inlet = 1011.1, k_inlet = 166.59, sigma_inlet = 3.0441E7, rho_inlet = 1862.1, Cp_outlet = 798.99, k_outlet = 123.62, sigma_outlet = 4.0585E7, rho_outlet = 2590.1, Cp_outlet_sleeve = 776.28, k_outlet_sleeve = 176.54, sigma_outlet_sleeve = 3.1936E7, rho_outlet_sleeve = 2293.4, Cp_inlet_sleeve = 883.27, k_inlet_sleeve = 167.36, sigma_inlet_sleeve = 4.5459E7, rho_inlet_sleeve = 2392.9) (degC), Point: 154Temperature (Cp_Al = 702.73, k_Al = 117.12, sigma_Al = 4.1588E7, rho_Al = 2786.4, Cp_inlet = 1011.1, k_inlet = 166.59, sigma_inlet = 3.0441E7, rho_inlet = 1862.1, Cp_outlet = 798.99, k_outlet = 123.62, sigma_outlet = 4.0585E7, rho_outlet = 2590.1, Cp_outlet_sleeve = 776.28, k_outlet_sleeve = 176.54, sigma_outlet_sleeve = 3.1936E7, rho_outlet_sleeve = 2293.4, Cp_inlet_sleeve = 883.27, k_inlet_sleeve = 167.36, sigma_inlet_sleeve = 4.5459E7, rho_inlet_sleeve = 2392.9) (degC), Point: 159Temperature (Cp_Al = 702.73, k_Al = 117.12, sigma_Al = 4.1588E7, rho_Al = 2786.4, Cp_inlet = 1011.1, k_inlet = 166.59, sigma_inlet = 3.0441E7, rho_inlet = 1862.1, Cp_outlet = 798.99, k_outlet = 123.62, sigma_outlet = 4.0585E7, rho_outlet = 2590.1, Cp_outlet_sleeve = 776.28, k_outlet_sleeve = 176.54, sigma_outlet_sleeve = 3.1936E7, rho_outlet_sleeve = 2293.4, Cp_inlet_sleeve = 883.27, k_inlet_sleeve = 167.36, sigma_inlet_sleeve = 4.5459E7, rho_inlet_sleeve = 2392.9) (degC), Point: 163Temperature (Cp_Al = 702.73, k_Al = 117.12, sigma_Al = 4.1588E7, rho_Al = 2786.4, Cp_inlet = 1011.1, k_inlet = 166.59, sigma_inlet = 3.0441E7, rho_inlet = 1862.1, Cp_outlet = 798.99, k_outlet = 123.62, sigma_outlet = 4.0585E7, rho_outlet = 2590.1, Cp_outlet_sleeve = 776.28, k_outlet_sleeve = 176.54, sigma_outlet_sleeve = 3.1936E7, rho_outlet_sleeve = 2293.4, Cp_inlet_sleeve = 883.27, k_inlet_sleeve = 167.36, sigma_inlet_sleeve = 4.5459E7, rho_inlet_sleeve = 2392.9) (degC), Point: 167Temperature (Cp_Al = 702.73, k_Al = 117.12, sigma_Al = 4.1588E7, rho_Al = 2786.4, Cp_inlet = 1011.1, k_inlet = 166.59, sigma_inlet = 3.0441E7, rho_inlet = 1862.1, Cp_outlet = 798.99, k_outlet = 123.62, sigma_outlet = 4.0585E7, rho_outlet = 2590.1, Cp_outlet_sleeve = 776.28, k_outlet_sleeve = 176.54, sigma_outlet_sleeve = 3.1936E7, rho_outlet_sleeve = 2293.4, Cp_inlet_sleeve = 883.27, k_inlet_sleeve = 167.36, sigma_inlet_sleeve = 4.5459E7, rho_inlet_sleeve = 2392.9) (degC), Point: 168Temperature (Cp_Al = 702.73, k_Al = 117.12, sigma_Al = 4.1588E7, rho_Al = 2786.4, Cp_inlet = 1011.1, k_inlet = 166.59, sigma_inlet = 3.0441E7, rho_inlet = 1862.1, Cp_outlet = 798.99, k_outlet = 123.62, sigma_outlet = 4.0585E7, rho_outlet = 2590.1, Cp_outlet_sleeve = 776.28, k_outlet_sleeve = 176.54, sigma_outlet_sleeve = 3.1936E7, rho_outlet_sleeve = 2293.4, Cp_inlet_sleeve = 883.27, k_inlet_sleeve = 167.36, sigma_inlet_sleeve = 4.5459E7, rho_inlet_sleeve = 2392.9) (degC), Point: 172Temperature (Cp_Al = 702.73, k_Al = 117.12, sigma_Al = 4.1588E7, rho_Al = 2786.4, Cp_inlet = 1011.1, k_inlet = 166.59, sigma_inlet = 3.0441E7, rho_inlet = 1862.1, Cp_outlet = 798.99, k_outlet = 123.62, sigma_outlet = 4.0585E7, rho_outlet = 2590.1, Cp_outlet_sleeve = 776.28, k_outlet_sleeve = 176.54, sigma_outlet_sleeve = 3.1936E7, rho_outlet_sleeve = 2293.4, Cp_inlet_sleeve = 883.27, k_inlet_sleeve = 167.36, sigma_inlet_sleeve = 4.5459E7, rho_inlet_sleeve = 2392.9) (degC), Point: 181Temperature (Cp_Al = 702.73, k_Al = 117.12, sigma_Al = 4.1588E7, rho_Al = 2786.4, Cp_inlet = 1011.1, k_inlet = 166.59, sigma_inlet = 3.0441E7, rho_inlet = 1862.1, Cp_outlet = 798.99, k_outlet = 123.62, sigma_outlet = 4.0585E7, rho_outlet = 2590.1, Cp_outlet_sleeve = 776.28, k_outlet_sleeve = 176.54, sigma_outlet_sleeve = 3.1936E7, rho_outlet_sleeve = 2293.4, Cp_inlet_sleeve = 883.27, k_inlet_sleeve = 167.36, sigma_inlet_sleeve = 4.5459E7, rho_inlet_sleeve = 2392.9) (degC), Point: 201Temperature (Cp_Al = 702.73, k_Al = 117.12, sigma_Al = 4.1588E7, rho_Al = 2786.4, Cp_inlet = 1011.1, k_inlet = 166.59, sigma_inlet = 3.0441E7, rho_inlet = 1862.1, Cp_outlet = 798.99, k_outlet = 123.62, sigma_outlet = 4.0585E7, rho_outlet = 2590.1, Cp_outlet_sleeve = 776.28, k_outlet_sleeve = 176.54, sigma_outlet_sleeve = 3.1936E7, rho_outlet_sleeve = 2293.4, Cp_inlet_sleeve = 883.27, k_inlet_sleeve = 167.36, sigma_inlet_sleeve = 4.5459E7, rho_inlet_sleeve = 2392.9) (degC), Point: 210Temperature (Cp_Al = 702.73, k_Al = 117.12, sigma_Al = 4.1588E7, rho_Al = 2786.4, Cp_inlet = 1011.1, k_inlet = 166.59, sigma_inlet = 3.0441E7, rho_inlet = 1862.1, Cp_outlet = 798.99, k_outlet = 123.62, sigma_outlet = 4.0585E7, rho_outlet = 2590.1, Cp_outlet_sleeve = 776.28, k_outlet_sleeve = 176.54, sigma_outlet_sleeve = 3.1936E7, rho_outlet_sleeve = 2293.4, Cp_inlet_sleeve = 883.27, k_inlet_sleeve = 167.36, sigma_inlet_sleeve = 4.5459E7, rho_inlet_sleeve = 2392.9) (degC), Point: 213Temperature (Cp_Al = 702.73, k_Al = 117.12, sigma_Al = 4.1588E7, rho_Al = 2786.4, Cp_inlet = 1011.1, k_inlet = 166.59, sigma_inlet = 3.0441E7, rho_inlet = 1862.1, Cp_outlet = 798.99, k_outlet = 123.62, sigma_outlet = 4.0585E7, rho_outlet = 2590.1, Cp_outlet_sleeve = 776.28, k_outlet_sleeve = 176.54, sigma_outlet_sleeve = 3.1936E7, rho_outlet_sleeve = 2293.4, Cp_inlet_sleeve = 883.27, k_inlet_sleeve = 167.36, sigma_inlet_sleeve = 4.5459E7, rho_inlet_sleeve = 2392.9) (degC), Point: 215Temperature (Cp_Al = 702.73, k_Al = 117.12, sigma_Al = 4.1588E7, rho_Al = 2786.4, Cp_inlet = 1011.1, k_inlet = 166.59, sigma_inlet = 3.0441E7, rho_inlet = 1862.1, Cp_outlet = 798.99, k_outlet = 123.62, sigma_outlet = 4.0585E7, rho_outlet = 2590.1, Cp_outlet_sleeve = 776.28, k_outlet_sleeve = 176.54, sigma_outlet_sleeve = 3.1936E7, rho_outlet_sleeve = 2293.4, Cp_inlet_sleeve = 883.27, k_inlet_sleeve = 167.36, sigma_inlet_sleeve = 4.5459E7, rho_inlet_sleeve = 2392.9) (degC), Point: 229Temperature (Cp_Al = 702.73, k_Al = 117.12, sigma_Al = 4.1588E7, rho_Al = 2786.4, Cp_inlet = 1011.1, k_inlet = 166.59, sigma_inlet = 3.0441E7, rho_inlet = 1862.1, Cp_outlet = 798.99, k_outlet = 123.62, sigma_outlet = 4.0585E7, rho_outlet = 2590.1, Cp_outlet_sleeve = 776.28, k_outlet_sleeve = 176.54, sigma_outlet_sleeve = 3.1936E7, rho_outlet_sleeve = 2293.4, Cp_inlet_sleeve = 883.27, k_inlet_sleeve = 167.36, sigma_inlet_sleeve = 4.5459E7, rho_inlet_sleeve = 2392.9) (degC), Point: 232Temperature (Cp_Al = 702.73, k_Al = 117.12, sigma_Al = 4.1588E7, rho_Al = 2786.4, Cp_inlet = 1011.1, k_inlet = 166.59, sigma_inlet = 3.0441E7, rho_inlet = 1862.1, Cp_outlet = 798.99, k_outlet = 123.62, sigma_outlet = 4.0585E7, rho_outlet = 2590.1, Cp_outlet_sleeve = 776.28, k_outlet_sleeve = 176.54, sigma_outlet_sleeve = 3.1936E7, rho_outlet_sleeve = 2293.4, Cp_inlet_sleeve = 883.27, k_inlet_sleeve = 167.36, sigma_inlet_sleeve = 4.5459E7, rho_inlet_sleeve = 2392.9) (degC), Point: 239Temperature (Cp_Al = 702.73, k_Al = 117.12, sigma_Al = 4.1588E7, rho_Al = 2786.4, Cp_inlet = 1011.1, k_inlet = 166.59, sigma_inlet = 3.0441E7, rho_inlet = 1862.1, Cp_outlet = 798.99, k_outlet = 123.62, sigma_outlet = 4.0585E7, rho_outlet = 2590.1, Cp_outlet_sleeve = 776.28, k_outlet_sleeve = 176.54, sigma_outlet_sleeve = 3.1936E7, rho_outlet_sleeve = 2293.4, Cp_inlet_sleeve = 883.27, k_inlet_sleeve = 167.36, sigma_inlet_sleeve = 4.5459E7, rho_inlet_sleeve = 2392.9) (degC), Point: 252Temperature (Cp_Al = 702.73, k_Al = 117.12, sigma_Al = 4.1588E7, rho_Al = 2786.4, Cp_inlet = 1011.1, k_inlet = 166.59, sigma_inlet = 3.0441E7, rho_inlet = 1862.1, Cp_outlet = 798.99, k_outlet = 123.62, sigma_outlet = 4.0585E7, rho_outlet = 2590.1, Cp_outlet_sleeve = 776.28, k_outlet_sleeve = 176.54, sigma_outlet_sleeve = 3.1936E7, rho_outlet_sleeve = 2293.4, Cp_inlet_sleeve = 883.27, k_inlet_sleeve = 167.36, sigma_inlet_sleeve = 4.5459E7, rho_inlet_sleeve = 2392.9) (degC), Point: 261Temperature (Cp_Al = 702.73, k_Al = 117.12, sigma_Al = 4.1588E7, rho_Al = 2786.4, Cp_inlet = 1011.1, k_inlet = 166.59, sigma_inlet = 3.0441E7, rho_inlet = 1862.1, Cp_outlet = 798.99, k_outlet = 123.62, sigma_outlet = 4.0585E7, rho_outlet = 2590.1, Cp_outlet_sleeve = 776.28, k_outlet_sleeve = 176.54, sigma_outlet_sleeve = 3.1936E7, rho_outlet_sleeve = 2293.4, Cp_inlet_sleeve = 883.27, k_inlet_sleeve = 167.36, sigma_inlet_sleeve = 4.5459E7, rho_inlet_sleeve = 2392.9) (degC), Point: 270Temperature (Cp_Al = 702.73, k_Al = 117.12, sigma_Al = 4.1588E7, rho_Al = 2786.4, Cp_inlet = 1011.1, k_inlet = 166.59, sigma_inlet = 3.0441E7, rho_inlet = 1862.1, Cp_outlet = 798.99, k_outlet = 123.62, sigma_outlet = 4.0585E7, rho_outlet = 2590.1, Cp_outlet_sleeve = 776.28, k_outlet_sleeve = 176.54, sigma_outlet_sleeve = 3.1936E7, rho_outlet_sleeve = 2293.4, Cp_inlet_sleeve = 883.27, k_inlet_sleeve = 167.36, sigma_inlet_sleeve = 4.5459E7, rho_inlet_sleeve = 2392.9) (degC), Point: 273Temperature (Cp_Al = 702.73, k_Al = 117.12, sigma_Al = 4.1588E7, rho_Al = 2786.4, Cp_inlet = 1011.1, k_inlet = 166.59, sigma_inlet = 3.0441E7, rho_inlet = 1862.1, Cp_outlet = 798.99, k_outlet = 123.62, sigma_outlet = 4.0585E7, rho_outlet = 2590.1, Cp_outlet_sleeve = 776.28, k_outlet_sleeve = 176.54, sigma_outlet_sleeve = 3.1936E7, rho_outlet_sleeve = 2293.4, Cp_inlet_sleeve = 883.27, k_inlet_sleeve = 167.36, sigma_inlet_sleeve = 4.5459E7, rho_inlet_sleeve = 2392.9) (degC), Point: 275
0                        21.715483219806856       21.015931602885416       21.13235723631749        21.008919505573147       21.015113042654946       21.108386856125833       21.009749361371576       21.030883270847937       21.001556756285595       21.024678052284287       21.001356154721975       21.00069400785486        21.009466394813558       21.00011562192202        21.009128852510344       21.023679032625637       21.000057123580973       21.011624767241358       21.00076523973172        21.00031419221915        21.00179413032936        21.000194977922376       21.00030188850451        21.009737032174428       21.118877052809637       21.014483600666722       21.64244567791866        21.00878758116511        21.14526378993537        21.01911134689834        21.795636965495135
3                        332.2135513541871        301.0137251752129        311.4591757306856        307.145374707667         283.2643116926711        297.26664140029936       296.08234706186875       283.07399659522594       278.01226916316045       290.05315779635373       292.59547847790327       284.8151859543009        281.66641066748105       268.17337957649625       273.18096512508794       265.89863487730736       261.42257222139733       270.10758760230215       271.5148166130009        264.9069069820233        264.22586287190825       258.25641213604547       261.06208068101466       297.9149845816198        299.5242892363726        284.624284397222         317.0298014600435        308.41125191725985       312.87656152906106       299.4324421063511        335.31108187296695
6                        464.1469446951845        431.4068747309775        446.197553432748         442.82098760753126       411.1683125484336        429.9250836383694        429.77576467348854       412.62766167514246       405.7492844062572        422.60485157103085       426.1893113168869        418.3858766240875        414.19736101892556       395.8785169989035        402.6946964096063        396.1861944644786        390.0823659195081        403.3429937114503        405.73447390520164       399.2500146444744        397.65697663618346       387.3243608684254        391.6915709445691        431.3954348883192        431.93852442801995       412.15989449991275       446.4038627544626        441.18311522435783       444.6864761125721        426.59969938054485       464.1566308658355
9                        541.0329713634841        507.4256228097903        525.0650086171144        522.515439539787         483.55952897268605       505.3322332057103        506.0369808628212        485.89967690880894       478.0364012827247        497.9494470476535        502.39298637194406       494.58239270322565       489.5349916617147        468.15370657694746       475.94675637198566       472.00779957864734       464.9835061854517        481.23499899890214       484.4851010659926        478.1601754102361        475.74517588400533       462.52875937233773       467.7821442944593        507.5425337579643        507.205920294287         484.32920207950076       519.5701857064862        519.1182045460465        521.7666411779578        500.6223413821248        539.1365943142771
12                       594.7655945712611        560.5814049699657        580.2383509441979        578.3307205575754        533.808326057421         557.6806756385305        559.03467266656          536.719219224888         528.2172852559077        550.2579570489551        555.3541864945522        547.5432267854235        541.8428011198259        518.3300557965509        526.7559345091904        525.1017580496914        517.465450551383         535.8315964762043        539.7468312947044        533.5142848669763        530.4519595604218        515.1774569293223        521.0230994974221        560.473164869596         559.4680896109727        534.4364043516362        570.3236362212751        573.8986119104864        575.8755211811674        552.5549907361683        591.7084842074023
15                       634.971738832406         600.3842238743456        621.5273889724509        620.1250052171794        571.5071934175654        596.9193593098354        598.7809362594573        574.8140808734976        565.8711323124992        589.4708690379653        595.0770511746779        587.2684115616299        581.0574522352485        555.9824501961263        564.8449684779348        564.9086795995115        556.8453557875928        576.765267576661         581.2030162144525        575.0512421023786        571.4731176106826        554.6709408798328        560.9327332184772        600.1799316006046        598.6525814124054        572.0428984339302        608.3759574211343        615.085112663655         616.5281174320177        591.5974860986056        631.199004080453
18                       667.2112264963513        632.3249947877406        654.6161863906917        653.6231711588752        601.9976633226116        628.6066799868119        630.880943920568         605.6004077512571        596.3308025109562        621.1410777078856        627.1616145221828        619.3561907631205        612.7302088570964        586.4418809268642        595.6276286162231        596.88717130187          588.5085506544584        609.625422986073         614.4858908191453        608.4095643305234        604.4096320817134        586.4202867239596        592.9914141869889        632.2563534154659        630.3047054663122        602.470878373042         639.1336991373304        648.2203428341413        649.2274743213353        623.049699026564         662.9830945471604
21                       694.7683397420536        659.6467259801568        682.8697146095163        682.2193426559959        628.3239584285456        655.9130883528487        658.534612618813         632.1637035565375        622.6351820001375        648.4356794182497        654.8046761854878        647.0025564928187        640.0274487773343        612.746414909903         622.1882769662138        624.2642825855872        615.6381531677362        637.7238125948896        642.9375915681359        636.9306420388979        632.5756209118824        613.6193796029837        620.434588214126         659.895570250713         657.5872046059648        628.7529954028046        665.6767770991132        676.5917747759605        677.2325400774997        650.0422769507142        690.2364648074583
24                       719.386305147001         684.0707718031298        708.0770845330892        707.7204099997315        652.0348157369239        680.4512680224286        683.3705909916267        656.0724747261686        646.3299871898508        672.9654823696189        679.6331546314136        671.8341333329018        664.5597279472461        636.4414901149019        646.0949594559423        648.7529350019862        639.9237340389396        662.8214869404165        668.3376493292108        662.3933284043684        657.733032252361         637.9629331762261        644.9791144803947        684.7226218816004        682.1086083467212        652.4316210705927        689.570719584996         701.9498752918865        702.2761651170728        674.2363426825655        714.6443212492632
27                       742.0049488850862        706.5254866241178        731.2034879656164        731.1018512387828        673.9360696049688        703.0596996112587        706.2360500188048        678.1419816465387        668.2192532058157        695.5678625725066        702.4932105456666        694.6970066975531        687.1643653060056        658.3310827156687        668.1627748565393        671.2760379038419        662.2758600055829        685.8680738649499        691.6464188324632        685.7580741802257        680.8323523929549        660.3644441628849        667.550233138807         707.5826634475302        704.7050488583918        674.3089048888534        711.6291236581395        725.2394076016087        725.292696590588         696.5265912763365        737.1142290407896
