% Model:              brazing.mph
% Version:            COMSOL 5.3.0.223
% Date:               Oct 23 2018, 23:46
% Table:              Table 3 - 
% Time (s)               Temperature (Cp_Al = 833.4, k_Al = 170, sigma_Al = 4.0428E7, rho_Al = 2511.6, Cp_inlet = 980.2, k_inlet = 160.7, sigma_inlet = 3.5291E7, rho_inlet = 2817.3, Cp_outlet = 972.3, k_outlet = 158.8, sigma_outlet = 3.7309E7, rho_outlet = 2848.8, Cp_outlet_sleeve = 960.4, k_outlet_sleeve = 144.6, sigma_outlet_sleeve = 3.6107E7, rho_outlet_sleeve = 2645.6, Cp_inlet_sleeve = 965, k_inlet_sleeve = 170.2, sigma_inlet_sleeve = 3.4914E7, rho_inlet_sleeve = 2642) (degC), Point: 55Temperature (Cp_Al = 833.4, k_Al = 170, sigma_Al = 4.0428E7, rho_Al = 2511.6, Cp_inlet = 980.2, k_inlet = 160.7, sigma_inlet = 3.5291E7, rho_inlet = 2817.3, Cp_outlet = 972.3, k_outlet = 158.8, sigma_outlet = 3.7309E7, rho_outlet = 2848.8, Cp_outlet_sleeve = 960.4, k_outlet_sleeve = 144.6, sigma_outlet_sleeve = 3.6107E7, rho_outlet_sleeve = 2645.6, Cp_inlet_sleeve = 965, k_inlet_sleeve = 170.2, sigma_inlet_sleeve = 3.4914E7, rho_inlet_sleeve = 2642) (degC), Point: 56Temperature (Cp_Al = 833.4, k_Al = 170, sigma_Al = 4.0428E7, rho_Al = 2511.6, Cp_inlet = 980.2, k_inlet = 160.7, sigma_inlet = 3.5291E7, rho_inlet = 2817.3, Cp_outlet = 972.3, k_outlet = 158.8, sigma_outlet = 3.7309E7, rho_outlet = 2848.8, Cp_outlet_sleeve = 960.4, k_outlet_sleeve = 144.6, sigma_outlet_sleeve = 3.6107E7, rho_outlet_sleeve = 2645.6, Cp_inlet_sleeve = 965, k_inlet_sleeve = 170.2, sigma_inlet_sleeve = 3.4914E7, rho_inlet_sleeve = 2642) (degC), Point: 60Temperature (Cp_Al = 833.4, k_Al = 170, sigma_Al = 4.0428E7, rho_Al = 2511.6, Cp_inlet = 980.2, k_inlet = 160.7, sigma_inlet = 3.5291E7, rho_inlet = 2817.3, Cp_outlet = 972.3, k_outlet = 158.8, sigma_outlet = 3.7309E7, rho_outlet = 2848.8, Cp_outlet_sleeve = 960.4, k_outlet_sleeve = 144.6, sigma_outlet_sleeve = 3.6107E7, rho_outlet_sleeve = 2645.6, Cp_inlet_sleeve = 965, k_inlet_sleeve = 170.2, sigma_inlet_sleeve = 3.4914E7, rho_inlet_sleeve = 2642) (degC), Point: 69Temperature (Cp_Al = 833.4, k_Al = 170, sigma_Al = 4.0428E7, rho_Al = 2511.6, Cp_inlet = 980.2, k_inlet = 160.7, sigma_inlet = 3.5291E7, rho_inlet = 2817.3, Cp_outlet = 972.3, k_outlet = 158.8, sigma_outlet = 3.7309E7, rho_outlet = 2848.8, Cp_outlet_sleeve = 960.4, k_outlet_sleeve = 144.6, sigma_outlet_sleeve = 3.6107E7, rho_outlet_sleeve = 2645.6, Cp_inlet_sleeve = 965, k_inlet_sleeve = 170.2, sigma_inlet_sleeve = 3.4914E7, rho_inlet_sleeve = 2642) (degC), Point: 90Temperature (Cp_Al = 833.4, k_Al = 170, sigma_Al = 4.0428E7, rho_Al = 2511.6, Cp_inlet = 980.2, k_inlet = 160.7, sigma_inlet = 3.5291E7, rho_inlet = 2817.3, Cp_outlet = 972.3, k_outlet = 158.8, sigma_outlet = 3.7309E7, rho_outlet = 2848.8, Cp_outlet_sleeve = 960.4, k_outlet_sleeve = 144.6, sigma_outlet_sleeve = 3.6107E7, rho_outlet_sleeve = 2645.6, Cp_inlet_sleeve = 965, k_inlet_sleeve = 170.2, sigma_inlet_sleeve = 3.4914E7, rho_inlet_sleeve = 2642) (degC), Point: 98Temperature (Cp_Al = 833.4, k_Al = 170, sigma_Al = 4.0428E7, rho_Al = 2511.6, Cp_inlet = 980.2, k_inlet = 160.7, sigma_inlet = 3.5291E7, rho_inlet = 2817.3, Cp_outlet = 972.3, k_outlet = 158.8, sigma_outlet = 3.7309E7, rho_outlet = 2848.8, Cp_outlet_sleeve = 960.4, k_outlet_sleeve = 144.6, sigma_outlet_sleeve = 3.6107E7, rho_outlet_sleeve = 2645.6, Cp_inlet_sleeve = 965, k_inlet_sleeve = 170.2, sigma_inlet_sleeve = 3.4914E7, rho_inlet_sleeve = 2642) (degC), Point: 102Temperature (Cp_Al = 833.4, k_Al = 170, sigma_Al = 4.0428E7, rho_Al = 2511.6, Cp_inlet = 980.2, k_inlet = 160.7, sigma_inlet = 3.5291E7, rho_inlet = 2817.3, Cp_outlet = 972.3, k_outlet = 158.8, sigma_outlet = 3.7309E7, rho_outlet = 2848.8, Cp_outlet_sleeve = 960.4, k_outlet_sleeve = 144.6, sigma_outlet_sleeve = 3.6107E7, rho_outlet_sleeve = 2645.6, Cp_inlet_sleeve = 965, k_inlet_sleeve = 170.2, sigma_inlet_sleeve = 3.4914E7, rho_inlet_sleeve = 2642) (degC), Point: 127Temperature (Cp_Al = 833.4, k_Al = 170, sigma_Al = 4.0428E7, rho_Al = 2511.6, Cp_inlet = 980.2, k_inlet = 160.7, sigma_inlet = 3.5291E7, rho_inlet = 2817.3, Cp_outlet = 972.3, k_outlet = 158.8, sigma_outlet = 3.7309E7, rho_outlet = 2848.8, Cp_outlet_sleeve = 960.4, k_outlet_sleeve = 144.6, sigma_outlet_sleeve = 3.6107E7, rho_outlet_sleeve = 2645.6, Cp_inlet_sleeve = 965, k_inlet_sleeve = 170.2, sigma_inlet_sleeve = 3.4914E7, rho_inlet_sleeve = 2642) (degC), Point: 128Temperature (Cp_Al = 833.4, k_Al = 170, sigma_Al = 4.0428E7, rho_Al = 2511.6, Cp_inlet = 980.2, k_inlet = 160.7, sigma_inlet = 3.5291E7, rho_inlet = 2817.3, Cp_outlet = 972.3, k_outlet = 158.8, sigma_outlet = 3.7309E7, rho_outlet = 2848.8, Cp_outlet_sleeve = 960.4, k_outlet_sleeve = 144.6, sigma_outlet_sleeve = 3.6107E7, rho_outlet_sleeve = 2645.6, Cp_inlet_sleeve = 965, k_inlet_sleeve = 170.2, sigma_inlet_sleeve = 3.4914E7, rho_inlet_sleeve = 2642) (degC), Point: 134Temperature (Cp_Al = 833.4, k_Al = 170, sigma_Al = 4.0428E7, rho_Al = 2511.6, Cp_inlet = 980.2, k_inlet = 160.7, sigma_inlet = 3.5291E7, rho_inlet = 2817.3, Cp_outlet = 972.3, k_outlet = 158.8, sigma_outlet = 3.7309E7, rho_outlet = 2848.8, Cp_outlet_sleeve = 960.4, k_outlet_sleeve = 144.6, sigma_outlet_sleeve = 3.6107E7, rho_outlet_sleeve = 2645.6, Cp_inlet_sleeve = 965, k_inlet_sleeve = 170.2, sigma_inlet_sleeve = 3.4914E7, rho_inlet_sleeve = 2642) (degC), Point: 138Temperature (Cp_Al = 833.4, k_Al = 170, sigma_Al = 4.0428E7, rho_Al = 2511.6, Cp_inlet = 980.2, k_inlet = 160.7, sigma_inlet = 3.5291E7, rho_inlet = 2817.3, Cp_outlet = 972.3, k_outlet = 158.8, sigma_outlet = 3.7309E7, rho_outlet = 2848.8, Cp_outlet_sleeve = 960.4, k_outlet_sleeve = 144.6, sigma_outlet_sleeve = 3.6107E7, rho_outlet_sleeve = 2645.6, Cp_inlet_sleeve = 965, k_inlet_sleeve = 170.2, sigma_inlet_sleeve = 3.4914E7, rho_inlet_sleeve = 2642) (degC), Point: 151Temperature (Cp_Al = 833.4, k_Al = 170, sigma_Al = 4.0428E7, rho_Al = 2511.6, Cp_inlet = 980.2, k_inlet = 160.7, sigma_inlet = 3.5291E7, rho_inlet = 2817.3, Cp_outlet = 972.3, k_outlet = 158.8, sigma_outlet = 3.7309E7, rho_outlet = 2848.8, Cp_outlet_sleeve = 960.4, k_outlet_sleeve = 144.6, sigma_outlet_sleeve = 3.6107E7, rho_outlet_sleeve = 2645.6, Cp_inlet_sleeve = 965, k_inlet_sleeve = 170.2, sigma_inlet_sleeve = 3.4914E7, rho_inlet_sleeve = 2642) (degC), Point: 154Temperature (Cp_Al = 833.4, k_Al = 170, sigma_Al = 4.0428E7, rho_Al = 2511.6, Cp_inlet = 980.2, k_inlet = 160.7, sigma_inlet = 3.5291E7, rho_inlet = 2817.3, Cp_outlet = 972.3, k_outlet = 158.8, sigma_outlet = 3.7309E7, rho_outlet = 2848.8, Cp_outlet_sleeve = 960.4, k_outlet_sleeve = 144.6, sigma_outlet_sleeve = 3.6107E7, rho_outlet_sleeve = 2645.6, Cp_inlet_sleeve = 965, k_inlet_sleeve = 170.2, sigma_inlet_sleeve = 3.4914E7, rho_inlet_sleeve = 2642) (degC), Point: 159Temperature (Cp_Al = 833.4, k_Al = 170, sigma_Al = 4.0428E7, rho_Al = 2511.6, Cp_inlet = 980.2, k_inlet = 160.7, sigma_inlet = 3.5291E7, rho_inlet = 2817.3, Cp_outlet = 972.3, k_outlet = 158.8, sigma_outlet = 3.7309E7, rho_outlet = 2848.8, Cp_outlet_sleeve = 960.4, k_outlet_sleeve = 144.6, sigma_outlet_sleeve = 3.6107E7, rho_outlet_sleeve = 2645.6, Cp_inlet_sleeve = 965, k_inlet_sleeve = 170.2, sigma_inlet_sleeve = 3.4914E7, rho_inlet_sleeve = 2642) (degC), Point: 163Temperature (Cp_Al = 833.4, k_Al = 170, sigma_Al = 4.0428E7, rho_Al = 2511.6, Cp_inlet = 980.2, k_inlet = 160.7, sigma_inlet = 3.5291E7, rho_inlet = 2817.3, Cp_outlet = 972.3, k_outlet = 158.8, sigma_outlet = 3.7309E7, rho_outlet = 2848.8, Cp_outlet_sleeve = 960.4, k_outlet_sleeve = 144.6, sigma_outlet_sleeve = 3.6107E7, rho_outlet_sleeve = 2645.6, Cp_inlet_sleeve = 965, k_inlet_sleeve = 170.2, sigma_inlet_sleeve = 3.4914E7, rho_inlet_sleeve = 2642) (degC), Point: 167Temperature (Cp_Al = 833.4, k_Al = 170, sigma_Al = 4.0428E7, rho_Al = 2511.6, Cp_inlet = 980.2, k_inlet = 160.7, sigma_inlet = 3.5291E7, rho_inlet = 2817.3, Cp_outlet = 972.3, k_outlet = 158.8, sigma_outlet = 3.7309E7, rho_outlet = 2848.8, Cp_outlet_sleeve = 960.4, k_outlet_sleeve = 144.6, sigma_outlet_sleeve = 3.6107E7, rho_outlet_sleeve = 2645.6, Cp_inlet_sleeve = 965, k_inlet_sleeve = 170.2, sigma_inlet_sleeve = 3.4914E7, rho_inlet_sleeve = 2642) (degC), Point: 168Temperature (Cp_Al = 833.4, k_Al = 170, sigma_Al = 4.0428E7, rho_Al = 2511.6, Cp_inlet = 980.2, k_inlet = 160.7, sigma_inlet = 3.5291E7, rho_inlet = 2817.3, Cp_outlet = 972.3, k_outlet = 158.8, sigma_outlet = 3.7309E7, rho_outlet = 2848.8, Cp_outlet_sleeve = 960.4, k_outlet_sleeve = 144.6, sigma_outlet_sleeve = 3.6107E7, rho_outlet_sleeve = 2645.6, Cp_inlet_sleeve = 965, k_inlet_sleeve = 170.2, sigma_inlet_sleeve = 3.4914E7, rho_inlet_sleeve = 2642) (degC), Point: 172Temperature (Cp_Al = 833.4, k_Al = 170, sigma_Al = 4.0428E7, rho_Al = 2511.6, Cp_inlet = 980.2, k_inlet = 160.7, sigma_inlet = 3.5291E7, rho_inlet = 2817.3, Cp_outlet = 972.3, k_outlet = 158.8, sigma_outlet = 3.7309E7, rho_outlet = 2848.8, Cp_outlet_sleeve = 960.4, k_outlet_sleeve = 144.6, sigma_outlet_sleeve = 3.6107E7, rho_outlet_sleeve = 2645.6, Cp_inlet_sleeve = 965, k_inlet_sleeve = 170.2, sigma_inlet_sleeve = 3.4914E7, rho_inlet_sleeve = 2642) (degC), Point: 181Temperature (Cp_Al = 833.4, k_Al = 170, sigma_Al = 4.0428E7, rho_Al = 2511.6, Cp_inlet = 980.2, k_inlet = 160.7, sigma_inlet = 3.5291E7, rho_inlet = 2817.3, Cp_outlet = 972.3, k_outlet = 158.8, sigma_outlet = 3.7309E7, rho_outlet = 2848.8, Cp_outlet_sleeve = 960.4, k_outlet_sleeve = 144.6, sigma_outlet_sleeve = 3.6107E7, rho_outlet_sleeve = 2645.6, Cp_inlet_sleeve = 965, k_inlet_sleeve = 170.2, sigma_inlet_sleeve = 3.4914E7, rho_inlet_sleeve = 2642) (degC), Point: 201Temperature (Cp_Al = 833.4, k_Al = 170, sigma_Al = 4.0428E7, rho_Al = 2511.6, Cp_inlet = 980.2, k_inlet = 160.7, sigma_inlet = 3.5291E7, rho_inlet = 2817.3, Cp_outlet = 972.3, k_outlet = 158.8, sigma_outlet = 3.7309E7, rho_outlet = 2848.8, Cp_outlet_sleeve = 960.4, k_outlet_sleeve = 144.6, sigma_outlet_sleeve = 3.6107E7, rho_outlet_sleeve = 2645.6, Cp_inlet_sleeve = 965, k_inlet_sleeve = 170.2, sigma_inlet_sleeve = 3.4914E7, rho_inlet_sleeve = 2642) (degC), Point: 210Temperature (Cp_Al = 833.4, k_Al = 170, sigma_Al = 4.0428E7, rho_Al = 2511.6, Cp_inlet = 980.2, k_inlet = 160.7, sigma_inlet = 3.5291E7, rho_inlet = 2817.3, Cp_outlet = 972.3, k_outlet = 158.8, sigma_outlet = 3.7309E7, rho_outlet = 2848.8, Cp_outlet_sleeve = 960.4, k_outlet_sleeve = 144.6, sigma_outlet_sleeve = 3.6107E7, rho_outlet_sleeve = 2645.6, Cp_inlet_sleeve = 965, k_inlet_sleeve = 170.2, sigma_inlet_sleeve = 3.4914E7, rho_inlet_sleeve = 2642) (degC), Point: 213Temperature (Cp_Al = 833.4, k_Al = 170, sigma_Al = 4.0428E7, rho_Al = 2511.6, Cp_inlet = 980.2, k_inlet = 160.7, sigma_inlet = 3.5291E7, rho_inlet = 2817.3, Cp_outlet = 972.3, k_outlet = 158.8, sigma_outlet = 3.7309E7, rho_outlet = 2848.8, Cp_outlet_sleeve = 960.4, k_outlet_sleeve = 144.6, sigma_outlet_sleeve = 3.6107E7, rho_outlet_sleeve = 2645.6, Cp_inlet_sleeve = 965, k_inlet_sleeve = 170.2, sigma_inlet_sleeve = 3.4914E7, rho_inlet_sleeve = 2642) (degC), Point: 215Temperature (Cp_Al = 833.4, k_Al = 170, sigma_Al = 4.0428E7, rho_Al = 2511.6, Cp_inlet = 980.2, k_inlet = 160.7, sigma_inlet = 3.5291E7, rho_inlet = 2817.3, Cp_outlet = 972.3, k_outlet = 158.8, sigma_outlet = 3.7309E7, rho_outlet = 2848.8, Cp_outlet_sleeve = 960.4, k_outlet_sleeve = 144.6, sigma_outlet_sleeve = 3.6107E7, rho_outlet_sleeve = 2645.6, Cp_inlet_sleeve = 965, k_inlet_sleeve = 170.2, sigma_inlet_sleeve = 3.4914E7, rho_inlet_sleeve = 2642) (degC), Point: 229Temperature (Cp_Al = 833.4, k_Al = 170, sigma_Al = 4.0428E7, rho_Al = 2511.6, Cp_inlet = 980.2, k_inlet = 160.7, sigma_inlet = 3.5291E7, rho_inlet = 2817.3, Cp_outlet = 972.3, k_outlet = 158.8, sigma_outlet = 3.7309E7, rho_outlet = 2848.8, Cp_outlet_sleeve = 960.4, k_outlet_sleeve = 144.6, sigma_outlet_sleeve = 3.6107E7, rho_outlet_sleeve = 2645.6, Cp_inlet_sleeve = 965, k_inlet_sleeve = 170.2, sigma_inlet_sleeve = 3.4914E7, rho_inlet_sleeve = 2642) (degC), Point: 232Temperature (Cp_Al = 833.4, k_Al = 170, sigma_Al = 4.0428E7, rho_Al = 2511.6, Cp_inlet = 980.2, k_inlet = 160.7, sigma_inlet = 3.5291E7, rho_inlet = 2817.3, Cp_outlet = 972.3, k_outlet = 158.8, sigma_outlet = 3.7309E7, rho_outlet = 2848.8, Cp_outlet_sleeve = 960.4, k_outlet_sleeve = 144.6, sigma_outlet_sleeve = 3.6107E7, rho_outlet_sleeve = 2645.6, Cp_inlet_sleeve = 965, k_inlet_sleeve = 170.2, sigma_inlet_sleeve = 3.4914E7, rho_inlet_sleeve = 2642) (degC), Point: 239Temperature (Cp_Al = 833.4, k_Al = 170, sigma_Al = 4.0428E7, rho_Al = 2511.6, Cp_inlet = 980.2, k_inlet = 160.7, sigma_inlet = 3.5291E7, rho_inlet = 2817.3, Cp_outlet = 972.3, k_outlet = 158.8, sigma_outlet = 3.7309E7, rho_outlet = 2848.8, Cp_outlet_sleeve = 960.4, k_outlet_sleeve = 144.6, sigma_outlet_sleeve = 3.6107E7, rho_outlet_sleeve = 2645.6, Cp_inlet_sleeve = 965, k_inlet_sleeve = 170.2, sigma_inlet_sleeve = 3.4914E7, rho_inlet_sleeve = 2642) (degC), Point: 252Temperature (Cp_Al = 833.4, k_Al = 170, sigma_Al = 4.0428E7, rho_Al = 2511.6, Cp_inlet = 980.2, k_inlet = 160.7, sigma_inlet = 3.5291E7, rho_inlet = 2817.3, Cp_outlet = 972.3, k_outlet = 158.8, sigma_outlet = 3.7309E7, rho_outlet = 2848.8, Cp_outlet_sleeve = 960.4, k_outlet_sleeve = 144.6, sigma_outlet_sleeve = 3.6107E7, rho_outlet_sleeve = 2645.6, Cp_inlet_sleeve = 965, k_inlet_sleeve = 170.2, sigma_inlet_sleeve = 3.4914E7, rho_inlet_sleeve = 2642) (degC), Point: 261Temperature (Cp_Al = 833.4, k_Al = 170, sigma_Al = 4.0428E7, rho_Al = 2511.6, Cp_inlet = 980.2, k_inlet = 160.7, sigma_inlet = 3.5291E7, rho_inlet = 2817.3, Cp_outlet = 972.3, k_outlet = 158.8, sigma_outlet = 3.7309E7, rho_outlet = 2848.8, Cp_outlet_sleeve = 960.4, k_outlet_sleeve = 144.6, sigma_outlet_sleeve = 3.6107E7, rho_outlet_sleeve = 2645.6, Cp_inlet_sleeve = 965, k_inlet_sleeve = 170.2, sigma_inlet_sleeve = 3.4914E7, rho_inlet_sleeve = 2642) (degC), Point: 270Temperature (Cp_Al = 833.4, k_Al = 170, sigma_Al = 4.0428E7, rho_Al = 2511.6, Cp_inlet = 980.2, k_inlet = 160.7, sigma_inlet = 3.5291E7, rho_inlet = 2817.3, Cp_outlet = 972.3, k_outlet = 158.8, sigma_outlet = 3.7309E7, rho_outlet = 2848.8, Cp_outlet_sleeve = 960.4, k_outlet_sleeve = 144.6, sigma_outlet_sleeve = 3.6107E7, rho_outlet_sleeve = 2645.6, Cp_inlet_sleeve = 965, k_inlet_sleeve = 170.2, sigma_inlet_sleeve = 3.4914E7, rho_inlet_sleeve = 2642) (degC), Point: 273Temperature (Cp_Al = 833.4, k_Al = 170, sigma_Al = 4.0428E7, rho_Al = 2511.6, Cp_inlet = 980.2, k_inlet = 160.7, sigma_inlet = 3.5291E7, rho_inlet = 2817.3, Cp_outlet = 972.3, k_outlet = 158.8, sigma_outlet = 3.7309E7, rho_outlet = 2848.8, Cp_outlet_sleeve = 960.4, k_outlet_sleeve = 144.6, sigma_outlet_sleeve = 3.6107E7, rho_outlet_sleeve = 2645.6, Cp_inlet_sleeve = 965, k_inlet_sleeve = 170.2, sigma_inlet_sleeve = 3.4914E7, rho_inlet_sleeve = 2642) (degC), Point: 275
0                        21.55042321814534        21.010715848991197       21.131510367383044       21.00737797775787        21.013091495241497       21.109648060884524       21.007764927206154       21.022439489593012       21.001404563031883       21.024901347184993       21.001100428690336       21.000579086310267       21.009690762975936       21.000106288056145       21.006769856872097       21.01797446365856        21.000051188414147       21.011521260230438       21.000621541071155       21.000253647926343       21.001762295167737       21.000154156994085       21.00022383931116        21.00774218928791        21.120302886769878       21.01259939174753        21.480171988052632       21.007279364002898       21.14434957142305        21.013607734745165       21.612572348562537
3                        288.1641208834218        250.5377099848721        258.0451432809708        252.77909991548165       245.0142722091408        255.8689115295956        253.3931473204326        243.77375548620705       239.7722087332811        248.57178479776167       249.87986612586815       241.67886271718532       239.71590411050101       229.19809960804218       233.37958528931995       216.13418393750743       211.78044282407114       219.81369882254955       220.85122514494333       214.55198143012876       214.02248951894882       208.27143486582986       210.69703288735104       255.37523180987978       258.30289578659756       246.53553101762395       276.5836162063795        254.98056413226368       260.5181672196966        250.44145898478473       293.51057914146065
6                        411.99245757511983       372.9088870123546        383.48664196475363       378.68755659868066       361.9690754385499        377.73277621370323       376.3379478487657        362.496292598247         356.58680340322735       370.3399467366114        372.7325048199734        364.5094649941883        361.46551232173556       345.9827696683932        352.0654881966125        339.08796587776226       333.2156496065154        344.4642138635787        345.993813962122         339.2971142345509        338.3260427525322        329.503756959743         333.40021091308677       378.12433034240837       379.9470144766457        363.17858446673824       395.1507841285138        378.77706040488476       383.8398078101434        370.4901543073279        415.11432427016746
9                        489.34094170107255       449.28265176853563       462.4198598417677        458.2519071372475        428.3454761890572        447.4647934531207        447.03086062236844       429.8908343090038        422.87957968613546       440.0200371361361        443.37607304127835       435.14528084984715       431.139290204753         412.26605423727756       419.4416510700711        415.64941365463505       408.76334524078607       422.6747639787436        424.8561752008177        418.2243743381723        416.63486049478956       405.2477648067455        410.1267200107118        448.7204963843535        449.5605467068398        429.3769917567731        462.4582587645277        456.9733833729957        461.39604486950407       445.35044364378246       491.01229105468565
12                       542.8899180586433        502.1473774695455        517.2838348582927        513.6858416654034        472.19335206246524       493.5969951434604        493.8862955615516        474.37270549560037       466.6745104384421        486.12090585426074       490.2020318214403        481.969874158091         477.2392063809051        456.0582997730223        463.9138563750315        468.7185775200462        461.1210232168248        477.1062974567212        479.87444870140075       473.2907319253136        471.133636290946         457.7338325311639        463.3027901991825        495.5229660380188        495.62293891674176       473.1153361897426        506.8874660201377        511.6101247093468        515.4479665231379        497.2964550967786        543.6864473446259
15                       583.9964122347725        542.7430520849863        559.460946316892         556.3440741766002        505.57357327883506       528.6267117598791        529.4615854600105        508.19107251902267       500.0183367122513        521.1295694135391        525.7576525257116        517.5277307659302        512.2501902360832        489.40328571869645       497.7281042353926        509.5141834177856        501.3865365892558        519.0072977770893        522.2696698869463        515.7431241592856        513.1014838566223        498.1012549838007        504.1864009081843        531.0667267964069        530.6082243717742        506.4232179272167        540.6722593801583        553.7904678166185        557.1302308118669        537.3103828631452        584.2437743379235
18                       616.9091990481635        575.2651187331234        593.2561436984158        590.5469170141092        532.3648685262439        556.6390397880901        557.8931878900553        535.2944088759463        526.7848029209292        549.1279694045481        554.1763339084965        545.9499469398286        540.2520002843123        516.1722311779197        524.8298839762123        542.2238442144203        533.691765892076         552.6254147535246        556.305870376769         549.8442804731043        546.7883272863978        530.4935648949108        536.9743341170162        559.480323931137         558.5925550235978        533.166806449142         567.754080751605         587.7195739173812        590.6341925500717        569.469528694208         616.8181666676878
21                       644.7101084497297        602.7548979678967        621.8006050136516        619.4413982298071        555.2414695982327        580.4620409497294        582.050336079591         558.4060840284681        549.644162198087         572.9416408923671        578.3248812391961        570.1023159624331        564.0692616050733        539.0343374733092        547.9411264601503        569.8883597386252        561.0351572869225        581.0535552152603        585.0925299281729        578.6977420374002        575.2837386538931        557.9128587014325        564.7090720071836        583.6275328047276        582.3976701000793        556.0112694164391        590.8515918798153        616.4619766020062        619.0096904885534        596.730549592979         644.4092055088585
24                       669.2542076482413        627.0421457160281        646.9843399177684        644.9300097029279        575.7248937665572        601.7118220746846        603.5762656191807        579.0760671707984        570.1153336809939        594.1850677775644        599.8449856037322        591.6261586743246        585.3161487936355        559.5081826732733        568.6111876294175        594.3382461399094        585.2207069969684        606.1589407113884        610.5098262252703        604.1794319773827        600.4522631456376        582.1647691622671        589.2215091585539        605.1484012458611        603.635885647761         576.4725475195154        611.5120103975922        641.8704034371868        644.0976019355626        620.8717492486142        668.8220970026541
27                       691.636337794404         649.2065230097862        669.9249511372624        668.1389783139211        594.6773316546082        621.3064362342241        623.4057761988093        598.1825810891714        589.0588325592495        613.7752694122954        619.6704719920759        611.455171810597         604.9095872296022        578.4541904247336        587.7180234608526        616.6532496598014        607.3121942289017        629.0452447108697        633.6703889311485        627.4000058093964        623.3965101228997        604.3145358389006        611.592102219122         624.9758193010526        623.2229479157638        595.4093626507464        630.6119109209287        665.0413988056983        666.9860928262642        642.941544441237         691.1215261317833
