% Model:              brazing.mph
% Version:            COMSOL 5.3.0.223
% Date:               Oct 24 2018, 04:38
% Table:              Table 3 - 
% Time (s)               Temperature (Cp_Al = 742.76, k_Al = 115.07, sigma_Al = 5.8111E7, rho_Al = 2636.2, Cp_inlet = 775.62, k_inlet = 186.11, sigma_inlet = 2.45E7, rho_inlet = 2055.3, Cp_outlet = 979.53, k_outlet = 120.58, sigma_outlet = 4.9671E7, rho_outlet = 2047.2, Cp_outlet_sleeve = 566.55, k_outlet_sleeve = 162.18, sigma_outlet_sleeve = 3.1985E7, rho_outlet_sleeve = 2917.1, Cp_inlet_sleeve = 830, k_inlet_sleeve = 119.74, sigma_inlet_sleeve = 5.6655E7, rho_inlet_sleeve = 2645.7) (degC), Point: 55Temperature (Cp_Al = 742.76, k_Al = 115.07, sigma_Al = 5.8111E7, rho_Al = 2636.2, Cp_inlet = 775.62, k_inlet = 186.11, sigma_inlet = 2.45E7, rho_inlet = 2055.3, Cp_outlet = 979.53, k_outlet = 120.58, sigma_outlet = 4.9671E7, rho_outlet = 2047.2, Cp_outlet_sleeve = 566.55, k_outlet_sleeve = 162.18, sigma_outlet_sleeve = 3.1985E7, rho_outlet_sleeve = 2917.1, Cp_inlet_sleeve = 830, k_inlet_sleeve = 119.74, sigma_inlet_sleeve = 5.6655E7, rho_inlet_sleeve = 2645.7) (degC), Point: 56Temperature (Cp_Al = 742.76, k_Al = 115.07, sigma_Al = 5.8111E7, rho_Al = 2636.2, Cp_inlet = 775.62, k_inlet = 186.11, sigma_inlet = 2.45E7, rho_inlet = 2055.3, Cp_outlet = 979.53, k_outlet = 120.58, sigma_outlet = 4.9671E7, rho_outlet = 2047.2, Cp_outlet_sleeve = 566.55, k_outlet_sleeve = 162.18, sigma_outlet_sleeve = 3.1985E7, rho_outlet_sleeve = 2917.1, Cp_inlet_sleeve = 830, k_inlet_sleeve = 119.74, sigma_inlet_sleeve = 5.6655E7, rho_inlet_sleeve = 2645.7) (degC), Point: 60Temperature (Cp_Al = 742.76, k_Al = 115.07, sigma_Al = 5.8111E7, rho_Al = 2636.2, Cp_inlet = 775.62, k_inlet = 186.11, sigma_inlet = 2.45E7, rho_inlet = 2055.3, Cp_outlet = 979.53, k_outlet = 120.58, sigma_outlet = 4.9671E7, rho_outlet = 2047.2, Cp_outlet_sleeve = 566.55, k_outlet_sleeve = 162.18, sigma_outlet_sleeve = 3.1985E7, rho_outlet_sleeve = 2917.1, Cp_inlet_sleeve = 830, k_inlet_sleeve = 119.74, sigma_inlet_sleeve = 5.6655E7, rho_inlet_sleeve = 2645.7) (degC), Point: 69Temperature (Cp_Al = 742.76, k_Al = 115.07, sigma_Al = 5.8111E7, rho_Al = 2636.2, Cp_inlet = 775.62, k_inlet = 186.11, sigma_inlet = 2.45E7, rho_inlet = 2055.3, Cp_outlet = 979.53, k_outlet = 120.58, sigma_outlet = 4.9671E7, rho_outlet = 2047.2, Cp_outlet_sleeve = 566.55, k_outlet_sleeve = 162.18, sigma_outlet_sleeve = 3.1985E7, rho_outlet_sleeve = 2917.1, Cp_inlet_sleeve = 830, k_inlet_sleeve = 119.74, sigma_inlet_sleeve = 5.6655E7, rho_inlet_sleeve = 2645.7) (degC), Point: 90Temperature (Cp_Al = 742.76, k_Al = 115.07, sigma_Al = 5.8111E7, rho_Al = 2636.2, Cp_inlet = 775.62, k_inlet = 186.11, sigma_inlet = 2.45E7, rho_inlet = 2055.3, Cp_outlet = 979.53, k_outlet = 120.58, sigma_outlet = 4.9671E7, rho_outlet = 2047.2, Cp_outlet_sleeve = 566.55, k_outlet_sleeve = 162.18, sigma_outlet_sleeve = 3.1985E7, rho_outlet_sleeve = 2917.1, Cp_inlet_sleeve = 830, k_inlet_sleeve = 119.74, sigma_inlet_sleeve = 5.6655E7, rho_inlet_sleeve = 2645.7) (degC), Point: 98Temperature (Cp_Al = 742.76, k_Al = 115.07, sigma_Al = 5.8111E7, rho_Al = 2636.2, Cp_inlet = 775.62, k_inlet = 186.11, sigma_inlet = 2.45E7, rho_inlet = 2055.3, Cp_outlet = 979.53, k_outlet = 120.58, sigma_outlet = 4.9671E7, rho_outlet = 2047.2, Cp_outlet_sleeve = 566.55, k_outlet_sleeve = 162.18, sigma_outlet_sleeve = 3.1985E7, rho_outlet_sleeve = 2917.1, Cp_inlet_sleeve = 830, k_inlet_sleeve = 119.74, sigma_inlet_sleeve = 5.6655E7, rho_inlet_sleeve = 2645.7) (degC), Point: 102Temperature (Cp_Al = 742.76, k_Al = 115.07, sigma_Al = 5.8111E7, rho_Al = 2636.2, Cp_inlet = 775.62, k_inlet = 186.11, sigma_inlet = 2.45E7, rho_inlet = 2055.3, Cp_outlet = 979.53, k_outlet = 120.58, sigma_outlet = 4.9671E7, rho_outlet = 2047.2, Cp_outlet_sleeve = 566.55, k_outlet_sleeve = 162.18, sigma_outlet_sleeve = 3.1985E7, rho_outlet_sleeve = 2917.1, Cp_inlet_sleeve = 830, k_inlet_sleeve = 119.74, sigma_inlet_sleeve = 5.6655E7, rho_inlet_sleeve = 2645.7) (degC), Point: 127Temperature (Cp_Al = 742.76, k_Al = 115.07, sigma_Al = 5.8111E7, rho_Al = 2636.2, Cp_inlet = 775.62, k_inlet = 186.11, sigma_inlet = 2.45E7, rho_inlet = 2055.3, Cp_outlet = 979.53, k_outlet = 120.58, sigma_outlet = 4.9671E7, rho_outlet = 2047.2, Cp_outlet_sleeve = 566.55, k_outlet_sleeve = 162.18, sigma_outlet_sleeve = 3.1985E7, rho_outlet_sleeve = 2917.1, Cp_inlet_sleeve = 830, k_inlet_sleeve = 119.74, sigma_inlet_sleeve = 5.6655E7, rho_inlet_sleeve = 2645.7) (degC), Point: 128Temperature (Cp_Al = 742.76, k_Al = 115.07, sigma_Al = 5.8111E7, rho_Al = 2636.2, Cp_inlet = 775.62, k_inlet = 186.11, sigma_inlet = 2.45E7, rho_inlet = 2055.3, Cp_outlet = 979.53, k_outlet = 120.58, sigma_outlet = 4.9671E7, rho_outlet = 2047.2, Cp_outlet_sleeve = 566.55, k_outlet_sleeve = 162.18, sigma_outlet_sleeve = 3.1985E7, rho_outlet_sleeve = 2917.1, Cp_inlet_sleeve = 830, k_inlet_sleeve = 119.74, sigma_inlet_sleeve = 5.6655E7, rho_inlet_sleeve = 2645.7) (degC), Point: 134Temperature (Cp_Al = 742.76, k_Al = 115.07, sigma_Al = 5.8111E7, rho_Al = 2636.2, Cp_inlet = 775.62, k_inlet = 186.11, sigma_inlet = 2.45E7, rho_inlet = 2055.3, Cp_outlet = 979.53, k_outlet = 120.58, sigma_outlet = 4.9671E7, rho_outlet = 2047.2, Cp_outlet_sleeve = 566.55, k_outlet_sleeve = 162.18, sigma_outlet_sleeve = 3.1985E7, rho_outlet_sleeve = 2917.1, Cp_inlet_sleeve = 830, k_inlet_sleeve = 119.74, sigma_inlet_sleeve = 5.6655E7, rho_inlet_sleeve = 2645.7) (degC), Point: 138Temperature (Cp_Al = 742.76, k_Al = 115.07, sigma_Al = 5.8111E7, rho_Al = 2636.2, Cp_inlet = 775.62, k_inlet = 186.11, sigma_inlet = 2.45E7, rho_inlet = 2055.3, Cp_outlet = 979.53, k_outlet = 120.58, sigma_outlet = 4.9671E7, rho_outlet = 2047.2, Cp_outlet_sleeve = 566.55, k_outlet_sleeve = 162.18, sigma_outlet_sleeve = 3.1985E7, rho_outlet_sleeve = 2917.1, Cp_inlet_sleeve = 830, k_inlet_sleeve = 119.74, sigma_inlet_sleeve = 5.6655E7, rho_inlet_sleeve = 2645.7) (degC), Point: 151Temperature (Cp_Al = 742.76, k_Al = 115.07, sigma_Al = 5.8111E7, rho_Al = 2636.2, Cp_inlet = 775.62, k_inlet = 186.11, sigma_inlet = 2.45E7, rho_inlet = 2055.3, Cp_outlet = 979.53, k_outlet = 120.58, sigma_outlet = 4.9671E7, rho_outlet = 2047.2, Cp_outlet_sleeve = 566.55, k_outlet_sleeve = 162.18, sigma_outlet_sleeve = 3.1985E7, rho_outlet_sleeve = 2917.1, Cp_inlet_sleeve = 830, k_inlet_sleeve = 119.74, sigma_inlet_sleeve = 5.6655E7, rho_inlet_sleeve = 2645.7) (degC), Point: 154Temperature (Cp_Al = 742.76, k_Al = 115.07, sigma_Al = 5.8111E7, rho_Al = 2636.2, Cp_inlet = 775.62, k_inlet = 186.11, sigma_inlet = 2.45E7, rho_inlet = 2055.3, Cp_outlet = 979.53, k_outlet = 120.58, sigma_outlet = 4.9671E7, rho_outlet = 2047.2, Cp_outlet_sleeve = 566.55, k_outlet_sleeve = 162.18, sigma_outlet_sleeve = 3.1985E7, rho_outlet_sleeve = 2917.1, Cp_inlet_sleeve = 830, k_inlet_sleeve = 119.74, sigma_inlet_sleeve = 5.6655E7, rho_inlet_sleeve = 2645.7) (degC), Point: 159Temperature (Cp_Al = 742.76, k_Al = 115.07, sigma_Al = 5.8111E7, rho_Al = 2636.2, Cp_inlet = 775.62, k_inlet = 186.11, sigma_inlet = 2.45E7, rho_inlet = 2055.3, Cp_outlet = 979.53, k_outlet = 120.58, sigma_outlet = 4.9671E7, rho_outlet = 2047.2, Cp_outlet_sleeve = 566.55, k_outlet_sleeve = 162.18, sigma_outlet_sleeve = 3.1985E7, rho_outlet_sleeve = 2917.1, Cp_inlet_sleeve = 830, k_inlet_sleeve = 119.74, sigma_inlet_sleeve = 5.6655E7, rho_inlet_sleeve = 2645.7) (degC), Point: 163Temperature (Cp_Al = 742.76, k_Al = 115.07, sigma_Al = 5.8111E7, rho_Al = 2636.2, Cp_inlet = 775.62, k_inlet = 186.11, sigma_inlet = 2.45E7, rho_inlet = 2055.3, Cp_outlet = 979.53, k_outlet = 120.58, sigma_outlet = 4.9671E7, rho_outlet = 2047.2, Cp_outlet_sleeve = 566.55, k_outlet_sleeve = 162.18, sigma_outlet_sleeve = 3.1985E7, rho_outlet_sleeve = 2917.1, Cp_inlet_sleeve = 830, k_inlet_sleeve = 119.74, sigma_inlet_sleeve = 5.6655E7, rho_inlet_sleeve = 2645.7) (degC), Point: 167Temperature (Cp_Al = 742.76, k_Al = 115.07, sigma_Al = 5.8111E7, rho_Al = 2636.2, Cp_inlet = 775.62, k_inlet = 186.11, sigma_inlet = 2.45E7, rho_inlet = 2055.3, Cp_outlet = 979.53, k_outlet = 120.58, sigma_outlet = 4.9671E7, rho_outlet = 2047.2, Cp_outlet_sleeve = 566.55, k_outlet_sleeve = 162.18, sigma_outlet_sleeve = 3.1985E7, rho_outlet_sleeve = 2917.1, Cp_inlet_sleeve = 830, k_inlet_sleeve = 119.74, sigma_inlet_sleeve = 5.6655E7, rho_inlet_sleeve = 2645.7) (degC), Point: 168Temperature (Cp_Al = 742.76, k_Al = 115.07, sigma_Al = 5.8111E7, rho_Al = 2636.2, Cp_inlet = 775.62, k_inlet = 186.11, sigma_inlet = 2.45E7, rho_inlet = 2055.3, Cp_outlet = 979.53, k_outlet = 120.58, sigma_outlet = 4.9671E7, rho_outlet = 2047.2, Cp_outlet_sleeve = 566.55, k_outlet_sleeve = 162.18, sigma_outlet_sleeve = 3.1985E7, rho_outlet_sleeve = 2917.1, Cp_inlet_sleeve = 830, k_inlet_sleeve = 119.74, sigma_inlet_sleeve = 5.6655E7, rho_inlet_sleeve = 2645.7) (degC), Point: 172Temperature (Cp_Al = 742.76, k_Al = 115.07, sigma_Al = 5.8111E7, rho_Al = 2636.2, Cp_inlet = 775.62, k_inlet = 186.11, sigma_inlet = 2.45E7, rho_inlet = 2055.3, Cp_outlet = 979.53, k_outlet = 120.58, sigma_outlet = 4.9671E7, rho_outlet = 2047.2, Cp_outlet_sleeve = 566.55, k_outlet_sleeve = 162.18, sigma_outlet_sleeve = 3.1985E7, rho_outlet_sleeve = 2917.1, Cp_inlet_sleeve = 830, k_inlet_sleeve = 119.74, sigma_inlet_sleeve = 5.6655E7, rho_inlet_sleeve = 2645.7) (degC), Point: 181Temperature (Cp_Al = 742.76, k_Al = 115.07, sigma_Al = 5.8111E7, rho_Al = 2636.2, Cp_inlet = 775.62, k_inlet = 186.11, sigma_inlet = 2.45E7, rho_inlet = 2055.3, Cp_outlet = 979.53, k_outlet = 120.58, sigma_outlet = 4.9671E7, rho_outlet = 2047.2, Cp_outlet_sleeve = 566.55, k_outlet_sleeve = 162.18, sigma_outlet_sleeve = 3.1985E7, rho_outlet_sleeve = 2917.1, Cp_inlet_sleeve = 830, k_inlet_sleeve = 119.74, sigma_inlet_sleeve = 5.6655E7, rho_inlet_sleeve = 2645.7) (degC), Point: 201Temperature (Cp_Al = 742.76, k_Al = 115.07, sigma_Al = 5.8111E7, rho_Al = 2636.2, Cp_inlet = 775.62, k_inlet = 186.11, sigma_inlet = 2.45E7, rho_inlet = 2055.3, Cp_outlet = 979.53, k_outlet = 120.58, sigma_outlet = 4.9671E7, rho_outlet = 2047.2, Cp_outlet_sleeve = 566.55, k_outlet_sleeve = 162.18, sigma_outlet_sleeve = 3.1985E7, rho_outlet_sleeve = 2917.1, Cp_inlet_sleeve = 830, k_inlet_sleeve = 119.74, sigma_inlet_sleeve = 5.6655E7, rho_inlet_sleeve = 2645.7) (degC), Point: 210Temperature (Cp_Al = 742.76, k_Al = 115.07, sigma_Al = 5.8111E7, rho_Al = 2636.2, Cp_inlet = 775.62, k_inlet = 186.11, sigma_inlet = 2.45E7, rho_inlet = 2055.3, Cp_outlet = 979.53, k_outlet = 120.58, sigma_outlet = 4.9671E7, rho_outlet = 2047.2, Cp_outlet_sleeve = 566.55, k_outlet_sleeve = 162.18, sigma_outlet_sleeve = 3.1985E7, rho_outlet_sleeve = 2917.1, Cp_inlet_sleeve = 830, k_inlet_sleeve = 119.74, sigma_inlet_sleeve = 5.6655E7, rho_inlet_sleeve = 2645.7) (degC), Point: 213Temperature (Cp_Al = 742.76, k_Al = 115.07, sigma_Al = 5.8111E7, rho_Al = 2636.2, Cp_inlet = 775.62, k_inlet = 186.11, sigma_inlet = 2.45E7, rho_inlet = 2055.3, Cp_outlet = 979.53, k_outlet = 120.58, sigma_outlet = 4.9671E7, rho_outlet = 2047.2, Cp_outlet_sleeve = 566.55, k_outlet_sleeve = 162.18, sigma_outlet_sleeve = 3.1985E7, rho_outlet_sleeve = 2917.1, Cp_inlet_sleeve = 830, k_inlet_sleeve = 119.74, sigma_inlet_sleeve = 5.6655E7, rho_inlet_sleeve = 2645.7) (degC), Point: 215Temperature (Cp_Al = 742.76, k_Al = 115.07, sigma_Al = 5.8111E7, rho_Al = 2636.2, Cp_inlet = 775.62, k_inlet = 186.11, sigma_inlet = 2.45E7, rho_inlet = 2055.3, Cp_outlet = 979.53, k_outlet = 120.58, sigma_outlet = 4.9671E7, rho_outlet = 2047.2, Cp_outlet_sleeve = 566.55, k_outlet_sleeve = 162.18, sigma_outlet_sleeve = 3.1985E7, rho_outlet_sleeve = 2917.1, Cp_inlet_sleeve = 830, k_inlet_sleeve = 119.74, sigma_inlet_sleeve = 5.6655E7, rho_inlet_sleeve = 2645.7) (degC), Point: 229Temperature (Cp_Al = 742.76, k_Al = 115.07, sigma_Al = 5.8111E7, rho_Al = 2636.2, Cp_inlet = 775.62, k_inlet = 186.11, sigma_inlet = 2.45E7, rho_inlet = 2055.3, Cp_outlet = 979.53, k_outlet = 120.58, sigma_outlet = 4.9671E7, rho_outlet = 2047.2, Cp_outlet_sleeve = 566.55, k_outlet_sleeve = 162.18, sigma_outlet_sleeve = 3.1985E7, rho_outlet_sleeve = 2917.1, Cp_inlet_sleeve = 830, k_inlet_sleeve = 119.74, sigma_inlet_sleeve = 5.6655E7, rho_inlet_sleeve = 2645.7) (degC), Point: 232Temperature (Cp_Al = 742.76, k_Al = 115.07, sigma_Al = 5.8111E7, rho_Al = 2636.2, Cp_inlet = 775.62, k_inlet = 186.11, sigma_inlet = 2.45E7, rho_inlet = 2055.3, Cp_outlet = 979.53, k_outlet = 120.58, sigma_outlet = 4.9671E7, rho_outlet = 2047.2, Cp_outlet_sleeve = 566.55, k_outlet_sleeve = 162.18, sigma_outlet_sleeve = 3.1985E7, rho_outlet_sleeve = 2917.1, Cp_inlet_sleeve = 830, k_inlet_sleeve = 119.74, sigma_inlet_sleeve = 5.6655E7, rho_inlet_sleeve = 2645.7) (degC), Point: 239Temperature (Cp_Al = 742.76, k_Al = 115.07, sigma_Al = 5.8111E7, rho_Al = 2636.2, Cp_inlet = 775.62, k_inlet = 186.11, sigma_inlet = 2.45E7, rho_inlet = 2055.3, Cp_outlet = 979.53, k_outlet = 120.58, sigma_outlet = 4.9671E7, rho_outlet = 2047.2, Cp_outlet_sleeve = 566.55, k_outlet_sleeve = 162.18, sigma_outlet_sleeve = 3.1985E7, rho_outlet_sleeve = 2917.1, Cp_inlet_sleeve = 830, k_inlet_sleeve = 119.74, sigma_inlet_sleeve = 5.6655E7, rho_inlet_sleeve = 2645.7) (degC), Point: 252Temperature (Cp_Al = 742.76, k_Al = 115.07, sigma_Al = 5.8111E7, rho_Al = 2636.2, Cp_inlet = 775.62, k_inlet = 186.11, sigma_inlet = 2.45E7, rho_inlet = 2055.3, Cp_outlet = 979.53, k_outlet = 120.58, sigma_outlet = 4.9671E7, rho_outlet = 2047.2, Cp_outlet_sleeve = 566.55, k_outlet_sleeve = 162.18, sigma_outlet_sleeve = 3.1985E7, rho_outlet_sleeve = 2917.1, Cp_inlet_sleeve = 830, k_inlet_sleeve = 119.74, sigma_inlet_sleeve = 5.6655E7, rho_inlet_sleeve = 2645.7) (degC), Point: 261Temperature (Cp_Al = 742.76, k_Al = 115.07, sigma_Al = 5.8111E7, rho_Al = 2636.2, Cp_inlet = 775.62, k_inlet = 186.11, sigma_inlet = 2.45E7, rho_inlet = 2055.3, Cp_outlet = 979.53, k_outlet = 120.58, sigma_outlet = 4.9671E7, rho_outlet = 2047.2, Cp_outlet_sleeve = 566.55, k_outlet_sleeve = 162.18, sigma_outlet_sleeve = 3.1985E7, rho_outlet_sleeve = 2917.1, Cp_inlet_sleeve = 830, k_inlet_sleeve = 119.74, sigma_inlet_sleeve = 5.6655E7, rho_inlet_sleeve = 2645.7) (degC), Point: 270Temperature (Cp_Al = 742.76, k_Al = 115.07, sigma_Al = 5.8111E7, rho_Al = 2636.2, Cp_inlet = 775.62, k_inlet = 186.11, sigma_inlet = 2.45E7, rho_inlet = 2055.3, Cp_outlet = 979.53, k_outlet = 120.58, sigma_outlet = 4.9671E7, rho_outlet = 2047.2, Cp_outlet_sleeve = 566.55, k_outlet_sleeve = 162.18, sigma_outlet_sleeve = 3.1985E7, rho_outlet_sleeve = 2917.1, Cp_inlet_sleeve = 830, k_inlet_sleeve = 119.74, sigma_inlet_sleeve = 5.6655E7, rho_inlet_sleeve = 2645.7) (degC), Point: 273Temperature (Cp_Al = 742.76, k_Al = 115.07, sigma_Al = 5.8111E7, rho_Al = 2636.2, Cp_inlet = 775.62, k_inlet = 186.11, sigma_inlet = 2.45E7, rho_inlet = 2055.3, Cp_outlet = 979.53, k_outlet = 120.58, sigma_outlet = 4.9671E7, rho_outlet = 2047.2, Cp_outlet_sleeve = 566.55, k_outlet_sleeve = 162.18, sigma_outlet_sleeve = 3.1985E7, rho_outlet_sleeve = 2917.1, Cp_inlet_sleeve = 830, k_inlet_sleeve = 119.74, sigma_inlet_sleeve = 5.6655E7, rho_inlet_sleeve = 2645.7) (degC), Point: 275
0                        21.768735725729414       21.017151422990366       21.130232789413355       21.008601278093124       21.01447603325653        21.108240052985934       21.010872489283656       21.034148073897086       21.00141082509259        21.02471165171187        21.001474301742576       21.000728876755772       21.009377941330058       21.00011010388539        21.009893472333204       21.02548719993746        21.000059530787837       21.011465672173358       21.00075709936266        21.00032148789205        21.001786449382678       21.000206717776962       21.00032097792223        21.010839899862845       21.118672912372062       21.013702966556536       21.693559599400487       21.00842142060253        21.142857620582788       21.020609870057          21.854865746923508
3                        342.6623109604419        309.2179577006633        318.07022079822616       313.2929841860421        299.28096887431593       314.70355280517526       313.93851466701744       299.52989109981456       292.69576350311524       307.3909581320079        310.5016031424741        302.97509528889657       299.2168780876225        282.76419723688616       289.15680034408626       272.21721105794666       267.59197926722845       275.6792715886746        276.7117410224745        270.5523703639809        270.19854148708475       264.72765671743036       267.56232679001994       315.83907834341676       317.06562988560097       300.93347132766996       346.17212808524846       314.7903782606895        319.7422107167197        307.9250305666875        346.3817156991197
6                        474.690297455316         439.613988775935         452.94494543242354       449.102600736163         442.52917460697677       462.2991684764248        462.28715235923903       444.73728774397944       435.791303737014         454.8929544682036        458.7646089766391        451.23620810055286       446.7212209482053        425.86109610097094       434.35395468199977       402.5903440198425        396.24380644986684       409.0383898324269        411.05080337066545       405.13627938336947       403.8763532484809        393.9236351706983        398.40592444734295       464.01982322021365       464.46926377638613       443.8765167525198        491.24508744963055       447.78384567781177       451.78192336138704       435.20615290438036       475.42860485526
9                        551.2120653466042        515.2129311779491        531.4744153190466        528.459138624362         526.3605499222908        549.2307853794244        549.9723761533685        529.7323233162889        519.5348953912529        541.7748994190795        546.4049067159953        538.8683488988191        533.5946500269556        509.58780244295906       519.3227736882523        478.08028130192497       470.75803410176513       486.62135109842814       489.49095468605367       483.72470712669417       481.64371299303286       468.72872795899787       474.15172066662785       551.613077175464         551.2865556381348        527.5140953256258        576.1450282592805        525.4249234031988        528.5705817766051        508.86172434115895       550.0962598563448
12                       604.3465108897778        567.7362228006198        586.0595498856385        583.6831797851444        584.5115955861708        609.721250523209         611.1034305094421        588.685428500086         577.6286320123259        602.2339805213903        607.5078306933987        599.9694375771928        594.0510169084179        567.6713818187816        578.2585229952628        530.6031335944501        522.6352420268175        540.653318516402         544.1835889920768        538.4872926121541        535.7618688691226        520.7434016786233        526.7936317680911        612.6913852186731        611.7062212823998        585.5392667532925        635.0362178403905        579.6355713153742        582.1140468777861        560.1867095231544        602.0952716275509
15                       643.4994014465153        606.4675784978615        626.2917976465703        624.4152823321266        627.4195733579744        654.4578587937373        656.3837401486697        632.1765328316948        620.4991117923641        646.9509253219949        652.7707011957586        645.2335593017094        638.7681505612522        610.5356449894036        621.737619688116         569.3826408273612        560.9703323991533        580.553086702247         584.5993263695424        578.9600826962304        575.7236451321179        559.1602856939705        565.6460214504617        657.9427242420948        656.3992762427507        628.3651360609803        678.4865820273137        619.779353489325         621.7298522147482        598.17821543576          640.5536719464676
18                       674.7858049927331        637.44155938021          658.4233774273106        656.9511396627207        661.7961940174865        690.3243292611418        692.7144576696674        667.007453283188         654.850132817572         682.8045721161762        689.0901626280979        681.5554273174204        674.6231574973251        644.8825613894694        656.5596149196655        600.4253549006689        591.6845655049023        612.4712780439064        616.9343466932354        611.3520225268384        607.6983544976353        589.935802494109         596.7457318299339        694.2573657602436        692.237739433281         662.6857204713667        713.2892938771876        651.9623126944396        653.4822934412675        628.6734116918352        671.3953667456105
21                       701.5948547552089        664.0021052234862        685.9289581154161        684.7962737482147        691.2487834637252        721.0243668920893        723.812232813034         696.8320748489703        684.2842940442126        713.4957523180343        720.1802294370083        712.6481090101763        705.316003973967         674.3137233714587        686.3771533511551        627.0637299379158        618.0625066512481        639.8297798284464        644.6425608570768        639.1152326418584        635.1092526850504        616.3645372294059        623.4327119529934        725.345812748181         722.9185654817803        692.0978512053676        743.0931810255403        679.5829977491262        680.7398751198393        654.9040723171422        697.9010730714824
24                       725.4968552777968        687.6987205394854        710.4213964939763        709.5801313543482        717.3767430290505        748.2039527155601        751.331402695885         723.2698521200742        710.3986441501719        740.6690534921294        747.693973168489         740.1643464278683        732.4909670338606        700.4257707387695        712.8091566491715        650.8420409290502        641.626334967956         664.2172985176015        669.3298384971497        663.8537965324036        659.5445839122284        639.9717610535067        647.2532981995151        752.85959869546          750.0845566235499        718.1957913563239        769.5152715575981        704.2209932416991        705.0657621222418        678.3664931853385        721.5898749092244
27                       747.368852769633         709.3971637034579        732.8016943447169        732.2133582913815        741.0595168015426        772.7725194761791        776.1881659369109        747.2116328078117        734.0711989853286        765.2330823135134        772.5468485800169        765.0194956828526        757.056556847227         724.0965560918639        736.746217307039         672.6223103380664        663.2259969812549        686.5209879097889        691.8933544177593        686.4642926195934        681.8915584559145        661.6092385337795        669.0708116792267        777.7133878233659        774.6433355704195        741.8559466706723        793.4450127679487        726.7588805977634        727.332780921745         699.8956661417783        743.3093548387467
