% Model:              brazing.mph
% Version:            COMSOL 5.3.0.223
% Date:               Oct 24 2018, 01:57
% Table:              Table 3 - 
% Time (s)               Temperature (Cp_Al = 998.31, k_Al = 196.75, sigma_Al = 3.5898E7, rho_Al = 2642.8, Cp_inlet = 664.44, k_inlet = 132.42, sigma_inlet = 4.2499E7, rho_inlet = 2966.8, Cp_outlet = 1050.2, k_outlet = 171.45, sigma_outlet = 3.3145E7, rho_outlet = 2578.7, Cp_outlet_sleeve = 811.12, k_outlet_sleeve = 148.23, sigma_outlet_sleeve = 3.6811E7, rho_outlet_sleeve = 3331.8, Cp_inlet_sleeve = 853.47, k_inlet_sleeve = 158.98, sigma_inlet_sleeve = 3.7242E7, rho_inlet_sleeve = 2804.9) (degC), Point: 55Temperature (Cp_Al = 998.31, k_Al = 196.75, sigma_Al = 3.5898E7, rho_Al = 2642.8, Cp_inlet = 664.44, k_inlet = 132.42, sigma_inlet = 4.2499E7, rho_inlet = 2966.8, Cp_outlet = 1050.2, k_outlet = 171.45, sigma_outlet = 3.3145E7, rho_outlet = 2578.7, Cp_outlet_sleeve = 811.12, k_outlet_sleeve = 148.23, sigma_outlet_sleeve = 3.6811E7, rho_outlet_sleeve = 3331.8, Cp_inlet_sleeve = 853.47, k_inlet_sleeve = 158.98, sigma_inlet_sleeve = 3.7242E7, rho_inlet_sleeve = 2804.9) (degC), Point: 56Temperature (Cp_Al = 998.31, k_Al = 196.75, sigma_Al = 3.5898E7, rho_Al = 2642.8, Cp_inlet = 664.44, k_inlet = 132.42, sigma_inlet = 4.2499E7, rho_inlet = 2966.8, Cp_outlet = 1050.2, k_outlet = 171.45, sigma_outlet = 3.3145E7, rho_outlet = 2578.7, Cp_outlet_sleeve = 811.12, k_outlet_sleeve = 148.23, sigma_outlet_sleeve = 3.6811E7, rho_outlet_sleeve = 3331.8, Cp_inlet_sleeve = 853.47, k_inlet_sleeve = 158.98, sigma_inlet_sleeve = 3.7242E7, rho_inlet_sleeve = 2804.9) (degC), Point: 60Temperature (Cp_Al = 998.31, k_Al = 196.75, sigma_Al = 3.5898E7, rho_Al = 2642.8, Cp_inlet = 664.44, k_inlet = 132.42, sigma_inlet = 4.2499E7, rho_inlet = 2966.8, Cp_outlet = 1050.2, k_outlet = 171.45, sigma_outlet = 3.3145E7, rho_outlet = 2578.7, Cp_outlet_sleeve = 811.12, k_outlet_sleeve = 148.23, sigma_outlet_sleeve = 3.6811E7, rho_outlet_sleeve = 3331.8, Cp_inlet_sleeve = 853.47, k_inlet_sleeve = 158.98, sigma_inlet_sleeve = 3.7242E7, rho_inlet_sleeve = 2804.9) (degC), Point: 69Temperature (Cp_Al = 998.31, k_Al = 196.75, sigma_Al = 3.5898E7, rho_Al = 2642.8, Cp_inlet = 664.44, k_inlet = 132.42, sigma_inlet = 4.2499E7, rho_inlet = 2966.8, Cp_outlet = 1050.2, k_outlet = 171.45, sigma_outlet = 3.3145E7, rho_outlet = 2578.7, Cp_outlet_sleeve = 811.12, k_outlet_sleeve = 148.23, sigma_outlet_sleeve = 3.6811E7, rho_outlet_sleeve = 3331.8, Cp_inlet_sleeve = 853.47, k_inlet_sleeve = 158.98, sigma_inlet_sleeve = 3.7242E7, rho_inlet_sleeve = 2804.9) (degC), Point: 90Temperature (Cp_Al = 998.31, k_Al = 196.75, sigma_Al = 3.5898E7, rho_Al = 2642.8, Cp_inlet = 664.44, k_inlet = 132.42, sigma_inlet = 4.2499E7, rho_inlet = 2966.8, Cp_outlet = 1050.2, k_outlet = 171.45, sigma_outlet = 3.3145E7, rho_outlet = 2578.7, Cp_outlet_sleeve = 811.12, k_outlet_sleeve = 148.23, sigma_outlet_sleeve = 3.6811E7, rho_outlet_sleeve = 3331.8, Cp_inlet_sleeve = 853.47, k_inlet_sleeve = 158.98, sigma_inlet_sleeve = 3.7242E7, rho_inlet_sleeve = 2804.9) (degC), Point: 98Temperature (Cp_Al = 998.31, k_Al = 196.75, sigma_Al = 3.5898E7, rho_Al = 2642.8, Cp_inlet = 664.44, k_inlet = 132.42, sigma_inlet = 4.2499E7, rho_inlet = 2966.8, Cp_outlet = 1050.2, k_outlet = 171.45, sigma_outlet = 3.3145E7, rho_outlet = 2578.7, Cp_outlet_sleeve = 811.12, k_outlet_sleeve = 148.23, sigma_outlet_sleeve = 3.6811E7, rho_outlet_sleeve = 3331.8, Cp_inlet_sleeve = 853.47, k_inlet_sleeve = 158.98, sigma_inlet_sleeve = 3.7242E7, rho_inlet_sleeve = 2804.9) (degC), Point: 102Temperature (Cp_Al = 998.31, k_Al = 196.75, sigma_Al = 3.5898E7, rho_Al = 2642.8, Cp_inlet = 664.44, k_inlet = 132.42, sigma_inlet = 4.2499E7, rho_inlet = 2966.8, Cp_outlet = 1050.2, k_outlet = 171.45, sigma_outlet = 3.3145E7, rho_outlet = 2578.7, Cp_outlet_sleeve = 811.12, k_outlet_sleeve = 148.23, sigma_outlet_sleeve = 3.6811E7, rho_outlet_sleeve = 3331.8, Cp_inlet_sleeve = 853.47, k_inlet_sleeve = 158.98, sigma_inlet_sleeve = 3.7242E7, rho_inlet_sleeve = 2804.9) (degC), Point: 127Temperature (Cp_Al = 998.31, k_Al = 196.75, sigma_Al = 3.5898E7, rho_Al = 2642.8, Cp_inlet = 664.44, k_inlet = 132.42, sigma_inlet = 4.2499E7, rho_inlet = 2966.8, Cp_outlet = 1050.2, k_outlet = 171.45, sigma_outlet = 3.3145E7, rho_outlet = 2578.7, Cp_outlet_sleeve = 811.12, k_outlet_sleeve = 148.23, sigma_outlet_sleeve = 3.6811E7, rho_outlet_sleeve = 3331.8, Cp_inlet_sleeve = 853.47, k_inlet_sleeve = 158.98, sigma_inlet_sleeve = 3.7242E7, rho_inlet_sleeve = 2804.9) (degC), Point: 128Temperature (Cp_Al = 998.31, k_Al = 196.75, sigma_Al = 3.5898E7, rho_Al = 2642.8, Cp_inlet = 664.44, k_inlet = 132.42, sigma_inlet = 4.2499E7, rho_inlet = 2966.8, Cp_outlet = 1050.2, k_outlet = 171.45, sigma_outlet = 3.3145E7, rho_outlet = 2578.7, Cp_outlet_sleeve = 811.12, k_outlet_sleeve = 148.23, sigma_outlet_sleeve = 3.6811E7, rho_outlet_sleeve = 3331.8, Cp_inlet_sleeve = 853.47, k_inlet_sleeve = 158.98, sigma_inlet_sleeve = 3.7242E7, rho_inlet_sleeve = 2804.9) (degC), Point: 134Temperature (Cp_Al = 998.31, k_Al = 196.75, sigma_Al = 3.5898E7, rho_Al = 2642.8, Cp_inlet = 664.44, k_inlet = 132.42, sigma_inlet = 4.2499E7, rho_inlet = 2966.8, Cp_outlet = 1050.2, k_outlet = 171.45, sigma_outlet = 3.3145E7, rho_outlet = 2578.7, Cp_outlet_sleeve = 811.12, k_outlet_sleeve = 148.23, sigma_outlet_sleeve = 3.6811E7, rho_outlet_sleeve = 3331.8, Cp_inlet_sleeve = 853.47, k_inlet_sleeve = 158.98, sigma_inlet_sleeve = 3.7242E7, rho_inlet_sleeve = 2804.9) (degC), Point: 138Temperature (Cp_Al = 998.31, k_Al = 196.75, sigma_Al = 3.5898E7, rho_Al = 2642.8, Cp_inlet = 664.44, k_inlet = 132.42, sigma_inlet = 4.2499E7, rho_inlet = 2966.8, Cp_outlet = 1050.2, k_outlet = 171.45, sigma_outlet = 3.3145E7, rho_outlet = 2578.7, Cp_outlet_sleeve = 811.12, k_outlet_sleeve = 148.23, sigma_outlet_sleeve = 3.6811E7, rho_outlet_sleeve = 3331.8, Cp_inlet_sleeve = 853.47, k_inlet_sleeve = 158.98, sigma_inlet_sleeve = 3.7242E7, rho_inlet_sleeve = 2804.9) (degC), Point: 151Temperature (Cp_Al = 998.31, k_Al = 196.75, sigma_Al = 3.5898E7, rho_Al = 2642.8, Cp_inlet = 664.44, k_inlet = 132.42, sigma_inlet = 4.2499E7, rho_inlet = 2966.8, Cp_outlet = 1050.2, k_outlet = 171.45, sigma_outlet = 3.3145E7, rho_outlet = 2578.7, Cp_outlet_sleeve = 811.12, k_outlet_sleeve = 148.23, sigma_outlet_sleeve = 3.6811E7, rho_outlet_sleeve = 3331.8, Cp_inlet_sleeve = 853.47, k_inlet_sleeve = 158.98, sigma_inlet_sleeve = 3.7242E7, rho_inlet_sleeve = 2804.9) (degC), Point: 154Temperature (Cp_Al = 998.31, k_Al = 196.75, sigma_Al = 3.5898E7, rho_Al = 2642.8, Cp_inlet = 664.44, k_inlet = 132.42, sigma_inlet = 4.2499E7, rho_inlet = 2966.8, Cp_outlet = 1050.2, k_outlet = 171.45, sigma_outlet = 3.3145E7, rho_outlet = 2578.7, Cp_outlet_sleeve = 811.12, k_outlet_sleeve = 148.23, sigma_outlet_sleeve = 3.6811E7, rho_outlet_sleeve = 3331.8, Cp_inlet_sleeve = 853.47, k_inlet_sleeve = 158.98, sigma_inlet_sleeve = 3.7242E7, rho_inlet_sleeve = 2804.9) (degC), Point: 159Temperature (Cp_Al = 998.31, k_Al = 196.75, sigma_Al = 3.5898E7, rho_Al = 2642.8, Cp_inlet = 664.44, k_inlet = 132.42, sigma_inlet = 4.2499E7, rho_inlet = 2966.8, Cp_outlet = 1050.2, k_outlet = 171.45, sigma_outlet = 3.3145E7, rho_outlet = 2578.7, Cp_outlet_sleeve = 811.12, k_outlet_sleeve = 148.23, sigma_outlet_sleeve = 3.6811E7, rho_outlet_sleeve = 3331.8, Cp_inlet_sleeve = 853.47, k_inlet_sleeve = 158.98, sigma_inlet_sleeve = 3.7242E7, rho_inlet_sleeve = 2804.9) (degC), Point: 163Temperature (Cp_Al = 998.31, k_Al = 196.75, sigma_Al = 3.5898E7, rho_Al = 2642.8, Cp_inlet = 664.44, k_inlet = 132.42, sigma_inlet = 4.2499E7, rho_inlet = 2966.8, Cp_outlet = 1050.2, k_outlet = 171.45, sigma_outlet = 3.3145E7, rho_outlet = 2578.7, Cp_outlet_sleeve = 811.12, k_outlet_sleeve = 148.23, sigma_outlet_sleeve = 3.6811E7, rho_outlet_sleeve = 3331.8, Cp_inlet_sleeve = 853.47, k_inlet_sleeve = 158.98, sigma_inlet_sleeve = 3.7242E7, rho_inlet_sleeve = 2804.9) (degC), Point: 167Temperature (Cp_Al = 998.31, k_Al = 196.75, sigma_Al = 3.5898E7, rho_Al = 2642.8, Cp_inlet = 664.44, k_inlet = 132.42, sigma_inlet = 4.2499E7, rho_inlet = 2966.8, Cp_outlet = 1050.2, k_outlet = 171.45, sigma_outlet = 3.3145E7, rho_outlet = 2578.7, Cp_outlet_sleeve = 811.12, k_outlet_sleeve = 148.23, sigma_outlet_sleeve = 3.6811E7, rho_outlet_sleeve = 3331.8, Cp_inlet_sleeve = 853.47, k_inlet_sleeve = 158.98, sigma_inlet_sleeve = 3.7242E7, rho_inlet_sleeve = 2804.9) (degC), Point: 168Temperature (Cp_Al = 998.31, k_Al = 196.75, sigma_Al = 3.5898E7, rho_Al = 2642.8, Cp_inlet = 664.44, k_inlet = 132.42, sigma_inlet = 4.2499E7, rho_inlet = 2966.8, Cp_outlet = 1050.2, k_outlet = 171.45, sigma_outlet = 3.3145E7, rho_outlet = 2578.7, Cp_outlet_sleeve = 811.12, k_outlet_sleeve = 148.23, sigma_outlet_sleeve = 3.6811E7, rho_outlet_sleeve = 3331.8, Cp_inlet_sleeve = 853.47, k_inlet_sleeve = 158.98, sigma_inlet_sleeve = 3.7242E7, rho_inlet_sleeve = 2804.9) (degC), Point: 172Temperature (Cp_Al = 998.31, k_Al = 196.75, sigma_Al = 3.5898E7, rho_Al = 2642.8, Cp_inlet = 664.44, k_inlet = 132.42, sigma_inlet = 4.2499E7, rho_inlet = 2966.8, Cp_outlet = 1050.2, k_outlet = 171.45, sigma_outlet = 3.3145E7, rho_outlet = 2578.7, Cp_outlet_sleeve = 811.12, k_outlet_sleeve = 148.23, sigma_outlet_sleeve = 3.6811E7, rho_outlet_sleeve = 3331.8, Cp_inlet_sleeve = 853.47, k_inlet_sleeve = 158.98, sigma_inlet_sleeve = 3.7242E7, rho_inlet_sleeve = 2804.9) (degC), Point: 181Temperature (Cp_Al = 998.31, k_Al = 196.75, sigma_Al = 3.5898E7, rho_Al = 2642.8, Cp_inlet = 664.44, k_inlet = 132.42, sigma_inlet = 4.2499E7, rho_inlet = 2966.8, Cp_outlet = 1050.2, k_outlet = 171.45, sigma_outlet = 3.3145E7, rho_outlet = 2578.7, Cp_outlet_sleeve = 811.12, k_outlet_sleeve = 148.23, sigma_outlet_sleeve = 3.6811E7, rho_outlet_sleeve = 3331.8, Cp_inlet_sleeve = 853.47, k_inlet_sleeve = 158.98, sigma_inlet_sleeve = 3.7242E7, rho_inlet_sleeve = 2804.9) (degC), Point: 201Temperature (Cp_Al = 998.31, k_Al = 196.75, sigma_Al = 3.5898E7, rho_Al = 2642.8, Cp_inlet = 664.44, k_inlet = 132.42, sigma_inlet = 4.2499E7, rho_inlet = 2966.8, Cp_outlet = 1050.2, k_outlet = 171.45, sigma_outlet = 3.3145E7, rho_outlet = 2578.7, Cp_outlet_sleeve = 811.12, k_outlet_sleeve = 148.23, sigma_outlet_sleeve = 3.6811E7, rho_outlet_sleeve = 3331.8, Cp_inlet_sleeve = 853.47, k_inlet_sleeve = 158.98, sigma_inlet_sleeve = 3.7242E7, rho_inlet_sleeve = 2804.9) (degC), Point: 210Temperature (Cp_Al = 998.31, k_Al = 196.75, sigma_Al = 3.5898E7, rho_Al = 2642.8, Cp_inlet = 664.44, k_inlet = 132.42, sigma_inlet = 4.2499E7, rho_inlet = 2966.8, Cp_outlet = 1050.2, k_outlet = 171.45, sigma_outlet = 3.3145E7, rho_outlet = 2578.7, Cp_outlet_sleeve = 811.12, k_outlet_sleeve = 148.23, sigma_outlet_sleeve = 3.6811E7, rho_outlet_sleeve = 3331.8, Cp_inlet_sleeve = 853.47, k_inlet_sleeve = 158.98, sigma_inlet_sleeve = 3.7242E7, rho_inlet_sleeve = 2804.9) (degC), Point: 213Temperature (Cp_Al = 998.31, k_Al = 196.75, sigma_Al = 3.5898E7, rho_Al = 2642.8, Cp_inlet = 664.44, k_inlet = 132.42, sigma_inlet = 4.2499E7, rho_inlet = 2966.8, Cp_outlet = 1050.2, k_outlet = 171.45, sigma_outlet = 3.3145E7, rho_outlet = 2578.7, Cp_outlet_sleeve = 811.12, k_outlet_sleeve = 148.23, sigma_outlet_sleeve = 3.6811E7, rho_outlet_sleeve = 3331.8, Cp_inlet_sleeve = 853.47, k_inlet_sleeve = 158.98, sigma_inlet_sleeve = 3.7242E7, rho_inlet_sleeve = 2804.9) (degC), Point: 215Temperature (Cp_Al = 998.31, k_Al = 196.75, sigma_Al = 3.5898E7, rho_Al = 2642.8, Cp_inlet = 664.44, k_inlet = 132.42, sigma_inlet = 4.2499E7, rho_inlet = 2966.8, Cp_outlet = 1050.2, k_outlet = 171.45, sigma_outlet = 3.3145E7, rho_outlet = 2578.7, Cp_outlet_sleeve = 811.12, k_outlet_sleeve = 148.23, sigma_outlet_sleeve = 3.6811E7, rho_outlet_sleeve = 3331.8, Cp_inlet_sleeve = 853.47, k_inlet_sleeve = 158.98, sigma_inlet_sleeve = 3.7242E7, rho_inlet_sleeve = 2804.9) (degC), Point: 229Temperature (Cp_Al = 998.31, k_Al = 196.75, sigma_Al = 3.5898E7, rho_Al = 2642.8, Cp_inlet = 664.44, k_inlet = 132.42, sigma_inlet = 4.2499E7, rho_inlet = 2966.8, Cp_outlet = 1050.2, k_outlet = 171.45, sigma_outlet = 3.3145E7, rho_outlet = 2578.7, Cp_outlet_sleeve = 811.12, k_outlet_sleeve = 148.23, sigma_outlet_sleeve = 3.6811E7, rho_outlet_sleeve = 3331.8, Cp_inlet_sleeve = 853.47, k_inlet_sleeve = 158.98, sigma_inlet_sleeve = 3.7242E7, rho_inlet_sleeve = 2804.9) (degC), Point: 232Temperature (Cp_Al = 998.31, k_Al = 196.75, sigma_Al = 3.5898E7, rho_Al = 2642.8, Cp_inlet = 664.44, k_inlet = 132.42, sigma_inlet = 4.2499E7, rho_inlet = 2966.8, Cp_outlet = 1050.2, k_outlet = 171.45, sigma_outlet = 3.3145E7, rho_outlet = 2578.7, Cp_outlet_sleeve = 811.12, k_outlet_sleeve = 148.23, sigma_outlet_sleeve = 3.6811E7, rho_outlet_sleeve = 3331.8, Cp_inlet_sleeve = 853.47, k_inlet_sleeve = 158.98, sigma_inlet_sleeve = 3.7242E7, rho_inlet_sleeve = 2804.9) (degC), Point: 239Temperature (Cp_Al = 998.31, k_Al = 196.75, sigma_Al = 3.5898E7, rho_Al = 2642.8, Cp_inlet = 664.44, k_inlet = 132.42, sigma_inlet = 4.2499E7, rho_inlet = 2966.8, Cp_outlet = 1050.2, k_outlet = 171.45, sigma_outlet = 3.3145E7, rho_outlet = 2578.7, Cp_outlet_sleeve = 811.12, k_outlet_sleeve = 148.23, sigma_outlet_sleeve = 3.6811E7, rho_outlet_sleeve = 3331.8, Cp_inlet_sleeve = 853.47, k_inlet_sleeve = 158.98, sigma_inlet_sleeve = 3.7242E7, rho_inlet_sleeve = 2804.9) (degC), Point: 252Temperature (Cp_Al = 998.31, k_Al = 196.75, sigma_Al = 3.5898E7, rho_Al = 2642.8, Cp_inlet = 664.44, k_inlet = 132.42, sigma_inlet = 4.2499E7, rho_inlet = 2966.8, Cp_outlet = 1050.2, k_outlet = 171.45, sigma_outlet = 3.3145E7, rho_outlet = 2578.7, Cp_outlet_sleeve = 811.12, k_outlet_sleeve = 148.23, sigma_outlet_sleeve = 3.6811E7, rho_outlet_sleeve = 3331.8, Cp_inlet_sleeve = 853.47, k_inlet_sleeve = 158.98, sigma_inlet_sleeve = 3.7242E7, rho_inlet_sleeve = 2804.9) (degC), Point: 261Temperature (Cp_Al = 998.31, k_Al = 196.75, sigma_Al = 3.5898E7, rho_Al = 2642.8, Cp_inlet = 664.44, k_inlet = 132.42, sigma_inlet = 4.2499E7, rho_inlet = 2966.8, Cp_outlet = 1050.2, k_outlet = 171.45, sigma_outlet = 3.3145E7, rho_outlet = 2578.7, Cp_outlet_sleeve = 811.12, k_outlet_sleeve = 148.23, sigma_outlet_sleeve = 3.6811E7, rho_outlet_sleeve = 3331.8, Cp_inlet_sleeve = 853.47, k_inlet_sleeve = 158.98, sigma_inlet_sleeve = 3.7242E7, rho_inlet_sleeve = 2804.9) (degC), Point: 270Temperature (Cp_Al = 998.31, k_Al = 196.75, sigma_Al = 3.5898E7, rho_Al = 2642.8, Cp_inlet = 664.44, k_inlet = 132.42, sigma_inlet = 4.2499E7, rho_inlet = 2966.8, Cp_outlet = 1050.2, k_outlet = 171.45, sigma_outlet = 3.3145E7, rho_outlet = 2578.7, Cp_outlet_sleeve = 811.12, k_outlet_sleeve = 148.23, sigma_outlet_sleeve = 3.6811E7, rho_outlet_sleeve = 3331.8, Cp_inlet_sleeve = 853.47, k_inlet_sleeve = 158.98, sigma_inlet_sleeve = 3.7242E7, rho_inlet_sleeve = 2804.9) (degC), Point: 273Temperature (Cp_Al = 998.31, k_Al = 196.75, sigma_Al = 3.5898E7, rho_Al = 2642.8, Cp_inlet = 664.44, k_inlet = 132.42, sigma_inlet = 4.2499E7, rho_inlet = 2966.8, Cp_outlet = 1050.2, k_outlet = 171.45, sigma_outlet = 3.3145E7, rho_outlet = 2578.7, Cp_outlet_sleeve = 811.12, k_outlet_sleeve = 148.23, sigma_outlet_sleeve = 3.6811E7, rho_outlet_sleeve = 3331.8, Cp_inlet_sleeve = 853.47, k_inlet_sleeve = 158.98, sigma_inlet_sleeve = 3.7242E7, rho_inlet_sleeve = 2804.9) (degC), Point: 275
0                        21.524371268041364       21.010000244845457       21.132643282282345       21.00765900917048        21.013885190186215       21.107513042784944       21.008981970465015       21.02443796902969        21.001483152224466       21.024350146939355       21.00127373475982        21.000688785264856       21.009505690207675       21.000113412236203       21.00731984259113        21.017124425137354       21.000049976023604       21.01161240054995        21.00063430926798        21.000253984902486       21.001764131982043       21.0001469838013         21.000213210355184       21.009027855571446       21.117965289944152       21.01334235741149        21.524577159719          21.007577974291053       21.145628710241226       21.012785800382403       21.583594724608588
3                        281.5990374400187        244.39219454976558       253.00700589796395       248.0031601951929        267.89222050964395       282.03552673968693       280.86858700960533       267.38712622800676       262.2571889155962        274.4266497301693        276.8643190739216        267.7940284509666        264.769559113823         250.74815082038697       256.0654289370343        211.9440203410773        207.46867799573687       216.38775476452997       217.75630477642835       211.4295921786054        210.54567612078358       203.89317303297378       206.4743365293998        283.1319086437793        284.7112819819897        269.628877465104         302.74539761048277       250.23478524981988       255.54506601958462       244.52127585702863       287.0074218995476
6                        400.449813786875         361.7738603463732        373.49691115020516       368.99892147690855       386.3970802092018        406.25824309548284       406.373959041792         387.99544461453445       380.62244323801326       398.5543899713134        402.2774854998502        393.186140347117         388.8795195024562        369.0817692932512        376.6329991950453        330.0019059085553        324.0052956397021        336.1536455313592        338.04787915860345       331.3381755455516        329.9740880884207        320.2188669513092        324.279631957108         408.4463267575321        408.71425611532663       387.8216522716824        423.19580704262273       369.27678049615474       374.07828018282305       359.77277155938737       403.813118683767
9                        473.4809710033596        433.83563723258          448.117991286347         444.26598699949125       448.33338067805005       471.7160783952271        472.84756384984325       451.0225590152412        442.4742056283844        463.96006344373404       468.7012072971627        459.60726279909136       454.28376859698915       430.92916600454          439.6452465288394        402.31476262205706       395.3125849018629        410.1194535994863        412.68050769184833       406.029773726027         404.0298148227232        391.70811487464323       396.7450038730276        474.8293370583375        474.0571266090883        449.58320362761094       486.1389702575209        443.30899508194454       447.4528970928394        430.45551077797643       475.5235740388961
12                       523.3955221910032        483.0699740882652        499.3574737253434        496.08653449732935       487.1547694627104        512.7979777139176        514.6523364797067        490.4796723764334        481.24157532888785       505.0100187252224        510.4757635346201        501.38588123695104       495.33811851661085       469.70021996466596       479.09806593096357       451.7889354381782        444.08062423434717       460.9660547641148        464.12546959810277       457.53904141698536       454.95761879975043       440.6141012427687        446.3365112444783        516.5861880497839        515.0730268826212        488.2992153660475        525.5479312236994        494.43083260986464       497.9755274559516        478.8654031808376        524.6552633636089
15                       561.3820857126184        520.5448277527422        538.4346968117588        535.6582398717946        516.0722982715808        543.3093777426222        545.6966368865751        519.8249677591997        510.12190542178905       535.4998801768023        541.4998306668687        532.4162046059613        525.834287757012         498.5865969252724        508.4434797150261        489.4890979876509        481.2505679506728        499.7921626462646        503.45971180671665       496.9492957145818        493.86771979010325       477.9000549937098        484.13926723220993       547.6025390518336        545.5428809148536        517.1476292040603        554.8632034972976        533.5962321788975        536.6266726804184        515.82539276371          562.1581780776895
18                       591.5594817234568        550.326372230469         569.5229303073539        567.169927343374         538.9579212575558        567.3606380727987        570.1530713859586        543.0106474174437        532.9819982231313        559.536776570076         565.9428570352738        556.8656915109642        549.8775094703881        521.4527943327737        531.6307837476672        519.4788398088801        510.8311547172832        530.7194698584774        534.8214426088119        528.3921175091713        524.8786464203508        507.58051865324137       514.2203286326434        572.0434010473621        569.5681233580635        539.9877218704266        578.029931987658         564.884847317484         567.472006614116         545.2900396974118        592.0424801516689
21                       616.9140121662562        575.3614019269055        595.6546009902925        593.6688972178312        558.4140603342881        587.7220734301468        590.8379222197101        562.6933101354377        552.4202101765367        579.8884550526916        586.618641048983         577.5474156838909        570.2348984504181        540.8964065826217        551.3153315587354        544.7065611684328        535.7295733179459        556.745125455597         561.2233705106439        554.8731575104679        550.9830033781537        532.5648745045485        539.5284048485411        592.7198905700121        589.9128829267057        559.4129646988835        597.7001471996097        591.266400224569         593.4675244383847        570.1267887328768        617.2172893275422
24                       639.2050736482264        597.385363447121         618.6205692439726        616.9571652722482        575.832261740226         605.8792552334106        609.2639332863923        580.2932663460689        569.8254866330404        598.0388629333625        605.0383737485781        595.9724370775346        588.390329587114         558.3063262315081        568.917062314367         566.90901934987          557.6575117990304        579.6390477463884        584.4470336447857        578.1703861362093        573.9486393353887        554.5668928256117        561.8011230595075        611.141826862296         608.0591626737578        576.8096090165401        615.2916509530376        614.4976151367181        616.359369227238         592.0242842146746        639.3966132845336
27                       659.4487310793427        617.400327437065         639.4569744501744        638.0784281020156        591.9529913314844        622.6232082418603        626.2373038192903        596.5657201722187        585.9366352598416        614.7779976134328        622.0072835686053        612.9460285314865        605.133878419318         574.4214906471851        585.1911162917563        587.088530037922         577.6025591502588        600.4247655907714        605.5238542329054        599.3141348920301        594.7988325046304        574.5763078943897        582.0422254639652        628.1136864683102        624.7958716643816        592.9149074148751        631.5582139281983        635.5961188580369        637.1577789911229        611.9569830221194        659.5698800850988
