% Model:              brazing.mph
% Version:            COMSOL 5.3.0.223
% Date:               Oct 24 2018, 05:56
% Table:              Table 3 - 
% Time (s)               Temperature (Cp_Al = 682.01, k_Al = 117.4, sigma_Al = 4.1996E7, rho_Al = 2932.6, Cp_inlet = 1071.8, k_inlet = 173.66, sigma_inlet = 2.9648E7, rho_inlet = 1734.9, Cp_outlet = 788.93, k_outlet = 117.11, sigma_outlet = 4.0885E7, rho_outlet = 2644.8, Cp_outlet_sleeve = 787.35, k_outlet_sleeve = 181.4, sigma_outlet_sleeve = 3.0311E7, rho_outlet_sleeve = 2281.3, Cp_inlet_sleeve = 854.15, k_inlet_sleeve = 165.58, sigma_inlet_sleeve = 4.4003E7, rho_inlet_sleeve = 2269.1) (degC), Point: 55Temperature (Cp_Al = 682.01, k_Al = 117.4, sigma_Al = 4.1996E7, rho_Al = 2932.6, Cp_inlet = 1071.8, k_inlet = 173.66, sigma_inlet = 2.9648E7, rho_inlet = 1734.9, Cp_outlet = 788.93, k_outlet = 117.11, sigma_outlet = 4.0885E7, rho_outlet = 2644.8, Cp_outlet_sleeve = 787.35, k_outlet_sleeve = 181.4, sigma_outlet_sleeve = 3.0311E7, rho_outlet_sleeve = 2281.3, Cp_inlet_sleeve = 854.15, k_inlet_sleeve = 165.58, sigma_inlet_sleeve = 4.4003E7, rho_inlet_sleeve = 2269.1) (degC), Point: 56Temperature (Cp_Al = 682.01, k_Al = 117.4, sigma_Al = 4.1996E7, rho_Al = 2932.6, Cp_inlet = 1071.8, k_inlet = 173.66, sigma_inlet = 2.9648E7, rho_inlet = 1734.9, Cp_outlet = 788.93, k_outlet = 117.11, sigma_outlet = 4.0885E7, rho_outlet = 2644.8, Cp_outlet_sleeve = 787.35, k_outlet_sleeve = 181.4, sigma_outlet_sleeve = 3.0311E7, rho_outlet_sleeve = 2281.3, Cp_inlet_sleeve = 854.15, k_inlet_sleeve = 165.58, sigma_inlet_sleeve = 4.4003E7, rho_inlet_sleeve = 2269.1) (degC), Point: 60Temperature (Cp_Al = 682.01, k_Al = 117.4, sigma_Al = 4.1996E7, rho_Al = 2932.6, Cp_inlet = 1071.8, k_inlet = 173.66, sigma_inlet = 2.9648E7, rho_inlet = 1734.9, Cp_outlet = 788.93, k_outlet = 117.11, sigma_outlet = 4.0885E7, rho_outlet = 2644.8, Cp_outlet_sleeve = 787.35, k_outlet_sleeve = 181.4, sigma_outlet_sleeve = 3.0311E7, rho_outlet_sleeve = 2281.3, Cp_inlet_sleeve = 854.15, k_inlet_sleeve = 165.58, sigma_inlet_sleeve = 4.4003E7, rho_inlet_sleeve = 2269.1) (degC), Point: 69Temperature (Cp_Al = 682.01, k_Al = 117.4, sigma_Al = 4.1996E7, rho_Al = 2932.6, Cp_inlet = 1071.8, k_inlet = 173.66, sigma_inlet = 2.9648E7, rho_inlet = 1734.9, Cp_outlet = 788.93, k_outlet = 117.11, sigma_outlet = 4.0885E7, rho_outlet = 2644.8, Cp_outlet_sleeve = 787.35, k_outlet_sleeve = 181.4, sigma_outlet_sleeve = 3.0311E7, rho_outlet_sleeve = 2281.3, Cp_inlet_sleeve = 854.15, k_inlet_sleeve = 165.58, sigma_inlet_sleeve = 4.4003E7, rho_inlet_sleeve = 2269.1) (degC), Point: 90Temperature (Cp_Al = 682.01, k_Al = 117.4, sigma_Al = 4.1996E7, rho_Al = 2932.6, Cp_inlet = 1071.8, k_inlet = 173.66, sigma_inlet = 2.9648E7, rho_inlet = 1734.9, Cp_outlet = 788.93, k_outlet = 117.11, sigma_outlet = 4.0885E7, rho_outlet = 2644.8, Cp_outlet_sleeve = 787.35, k_outlet_sleeve = 181.4, sigma_outlet_sleeve = 3.0311E7, rho_outlet_sleeve = 2281.3, Cp_inlet_sleeve = 854.15, k_inlet_sleeve = 165.58, sigma_inlet_sleeve = 4.4003E7, rho_inlet_sleeve = 2269.1) (degC), Point: 98Temperature (Cp_Al = 682.01, k_Al = 117.4, sigma_Al = 4.1996E7, rho_Al = 2932.6, Cp_inlet = 1071.8, k_inlet = 173.66, sigma_inlet = 2.9648E7, rho_inlet = 1734.9, Cp_outlet = 788.93, k_outlet = 117.11, sigma_outlet = 4.0885E7, rho_outlet = 2644.8, Cp_outlet_sleeve = 787.35, k_outlet_sleeve = 181.4, sigma_outlet_sleeve = 3.0311E7, rho_outlet_sleeve = 2281.3, Cp_inlet_sleeve = 854.15, k_inlet_sleeve = 165.58, sigma_inlet_sleeve = 4.4003E7, rho_inlet_sleeve = 2269.1) (degC), Point: 102Temperature (Cp_Al = 682.01, k_Al = 117.4, sigma_Al = 4.1996E7, rho_Al = 2932.6, Cp_inlet = 1071.8, k_inlet = 173.66, sigma_inlet = 2.9648E7, rho_inlet = 1734.9, Cp_outlet = 788.93, k_outlet = 117.11, sigma_outlet = 4.0885E7, rho_outlet = 2644.8, Cp_outlet_sleeve = 787.35, k_outlet_sleeve = 181.4, sigma_outlet_sleeve = 3.0311E7, rho_outlet_sleeve = 2281.3, Cp_inlet_sleeve = 854.15, k_inlet_sleeve = 165.58, sigma_inlet_sleeve = 4.4003E7, rho_inlet_sleeve = 2269.1) (degC), Point: 127Temperature (Cp_Al = 682.01, k_Al = 117.4, sigma_Al = 4.1996E7, rho_Al = 2932.6, Cp_inlet = 1071.8, k_inlet = 173.66, sigma_inlet = 2.9648E7, rho_inlet = 1734.9, Cp_outlet = 788.93, k_outlet = 117.11, sigma_outlet = 4.0885E7, rho_outlet = 2644.8, Cp_outlet_sleeve = 787.35, k_outlet_sleeve = 181.4, sigma_outlet_sleeve = 3.0311E7, rho_outlet_sleeve = 2281.3, Cp_inlet_sleeve = 854.15, k_inlet_sleeve = 165.58, sigma_inlet_sleeve = 4.4003E7, rho_inlet_sleeve = 2269.1) (degC), Point: 128Temperature (Cp_Al = 682.01, k_Al = 117.4, sigma_Al = 4.1996E7, rho_Al = 2932.6, Cp_inlet = 1071.8, k_inlet = 173.66, sigma_inlet = 2.9648E7, rho_inlet = 1734.9, Cp_outlet = 788.93, k_outlet = 117.11, sigma_outlet = 4.0885E7, rho_outlet = 2644.8, Cp_outlet_sleeve = 787.35, k_outlet_sleeve = 181.4, sigma_outlet_sleeve = 3.0311E7, rho_outlet_sleeve = 2281.3, Cp_inlet_sleeve = 854.15, k_inlet_sleeve = 165.58, sigma_inlet_sleeve = 4.4003E7, rho_inlet_sleeve = 2269.1) (degC), Point: 134Temperature (Cp_Al = 682.01, k_Al = 117.4, sigma_Al = 4.1996E7, rho_Al = 2932.6, Cp_inlet = 1071.8, k_inlet = 173.66, sigma_inlet = 2.9648E7, rho_inlet = 1734.9, Cp_outlet = 788.93, k_outlet = 117.11, sigma_outlet = 4.0885E7, rho_outlet = 2644.8, Cp_outlet_sleeve = 787.35, k_outlet_sleeve = 181.4, sigma_outlet_sleeve = 3.0311E7, rho_outlet_sleeve = 2281.3, Cp_inlet_sleeve = 854.15, k_inlet_sleeve = 165.58, sigma_inlet_sleeve = 4.4003E7, rho_inlet_sleeve = 2269.1) (degC), Point: 138Temperature (Cp_Al = 682.01, k_Al = 117.4, sigma_Al = 4.1996E7, rho_Al = 2932.6, Cp_inlet = 1071.8, k_inlet = 173.66, sigma_inlet = 2.9648E7, rho_inlet = 1734.9, Cp_outlet = 788.93, k_outlet = 117.11, sigma_outlet = 4.0885E7, rho_outlet = 2644.8, Cp_outlet_sleeve = 787.35, k_outlet_sleeve = 181.4, sigma_outlet_sleeve = 3.0311E7, rho_outlet_sleeve = 2281.3, Cp_inlet_sleeve = 854.15, k_inlet_sleeve = 165.58, sigma_inlet_sleeve = 4.4003E7, rho_inlet_sleeve = 2269.1) (degC), Point: 151Temperature (Cp_Al = 682.01, k_Al = 117.4, sigma_Al = 4.1996E7, rho_Al = 2932.6, Cp_inlet = 1071.8, k_inlet = 173.66, sigma_inlet = 2.9648E7, rho_inlet = 1734.9, Cp_outlet = 788.93, k_outlet = 117.11, sigma_outlet = 4.0885E7, rho_outlet = 2644.8, Cp_outlet_sleeve = 787.35, k_outlet_sleeve = 181.4, sigma_outlet_sleeve = 3.0311E7, rho_outlet_sleeve = 2281.3, Cp_inlet_sleeve = 854.15, k_inlet_sleeve = 165.58, sigma_inlet_sleeve = 4.4003E7, rho_inlet_sleeve = 2269.1) (degC), Point: 154Temperature (Cp_Al = 682.01, k_Al = 117.4, sigma_Al = 4.1996E7, rho_Al = 2932.6, Cp_inlet = 1071.8, k_inlet = 173.66, sigma_inlet = 2.9648E7, rho_inlet = 1734.9, Cp_outlet = 788.93, k_outlet = 117.11, sigma_outlet = 4.0885E7, rho_outlet = 2644.8, Cp_outlet_sleeve = 787.35, k_outlet_sleeve = 181.4, sigma_outlet_sleeve = 3.0311E7, rho_outlet_sleeve = 2281.3, Cp_inlet_sleeve = 854.15, k_inlet_sleeve = 165.58, sigma_inlet_sleeve = 4.4003E7, rho_inlet_sleeve = 2269.1) (degC), Point: 159Temperature (Cp_Al = 682.01, k_Al = 117.4, sigma_Al = 4.1996E7, rho_Al = 2932.6, Cp_inlet = 1071.8, k_inlet = 173.66, sigma_inlet = 2.9648E7, rho_inlet = 1734.9, Cp_outlet = 788.93, k_outlet = 117.11, sigma_outlet = 4.0885E7, rho_outlet = 2644.8, Cp_outlet_sleeve = 787.35, k_outlet_sleeve = 181.4, sigma_outlet_sleeve = 3.0311E7, rho_outlet_sleeve = 2281.3, Cp_inlet_sleeve = 854.15, k_inlet_sleeve = 165.58, sigma_inlet_sleeve = 4.4003E7, rho_inlet_sleeve = 2269.1) (degC), Point: 163Temperature (Cp_Al = 682.01, k_Al = 117.4, sigma_Al = 4.1996E7, rho_Al = 2932.6, Cp_inlet = 1071.8, k_inlet = 173.66, sigma_inlet = 2.9648E7, rho_inlet = 1734.9, Cp_outlet = 788.93, k_outlet = 117.11, sigma_outlet = 4.0885E7, rho_outlet = 2644.8, Cp_outlet_sleeve = 787.35, k_outlet_sleeve = 181.4, sigma_outlet_sleeve = 3.0311E7, rho_outlet_sleeve = 2281.3, Cp_inlet_sleeve = 854.15, k_inlet_sleeve = 165.58, sigma_inlet_sleeve = 4.4003E7, rho_inlet_sleeve = 2269.1) (degC), Point: 167Temperature (Cp_Al = 682.01, k_Al = 117.4, sigma_Al = 4.1996E7, rho_Al = 2932.6, Cp_inlet = 1071.8, k_inlet = 173.66, sigma_inlet = 2.9648E7, rho_inlet = 1734.9, Cp_outlet = 788.93, k_outlet = 117.11, sigma_outlet = 4.0885E7, rho_outlet = 2644.8, Cp_outlet_sleeve = 787.35, k_outlet_sleeve = 181.4, sigma_outlet_sleeve = 3.0311E7, rho_outlet_sleeve = 2281.3, Cp_inlet_sleeve = 854.15, k_inlet_sleeve = 165.58, sigma_inlet_sleeve = 4.4003E7, rho_inlet_sleeve = 2269.1) (degC), Point: 168Temperature (Cp_Al = 682.01, k_Al = 117.4, sigma_Al = 4.1996E7, rho_Al = 2932.6, Cp_inlet = 1071.8, k_inlet = 173.66, sigma_inlet = 2.9648E7, rho_inlet = 1734.9, Cp_outlet = 788.93, k_outlet = 117.11, sigma_outlet = 4.0885E7, rho_outlet = 2644.8, Cp_outlet_sleeve = 787.35, k_outlet_sleeve = 181.4, sigma_outlet_sleeve = 3.0311E7, rho_outlet_sleeve = 2281.3, Cp_inlet_sleeve = 854.15, k_inlet_sleeve = 165.58, sigma_inlet_sleeve = 4.4003E7, rho_inlet_sleeve = 2269.1) (degC), Point: 172Temperature (Cp_Al = 682.01, k_Al = 117.4, sigma_Al = 4.1996E7, rho_Al = 2932.6, Cp_inlet = 1071.8, k_inlet = 173.66, sigma_inlet = 2.9648E7, rho_inlet = 1734.9, Cp_outlet = 788.93, k_outlet = 117.11, sigma_outlet = 4.0885E7, rho_outlet = 2644.8, Cp_outlet_sleeve = 787.35, k_outlet_sleeve = 181.4, sigma_outlet_sleeve = 3.0311E7, rho_outlet_sleeve = 2281.3, Cp_inlet_sleeve = 854.15, k_inlet_sleeve = 165.58, sigma_inlet_sleeve = 4.4003E7, rho_inlet_sleeve = 2269.1) (degC), Point: 181Temperature (Cp_Al = 682.01, k_Al = 117.4, sigma_Al = 4.1996E7, rho_Al = 2932.6, Cp_inlet = 1071.8, k_inlet = 173.66, sigma_inlet = 2.9648E7, rho_inlet = 1734.9, Cp_outlet = 788.93, k_outlet = 117.11, sigma_outlet = 4.0885E7, rho_outlet = 2644.8, Cp_outlet_sleeve = 787.35, k_outlet_sleeve = 181.4, sigma_outlet_sleeve = 3.0311E7, rho_outlet_sleeve = 2281.3, Cp_inlet_sleeve = 854.15, k_inlet_sleeve = 165.58, sigma_inlet_sleeve = 4.4003E7, rho_inlet_sleeve = 2269.1) (degC), Point: 201Temperature (Cp_Al = 682.01, k_Al = 117.4, sigma_Al = 4.1996E7, rho_Al = 2932.6, Cp_inlet = 1071.8, k_inlet = 173.66, sigma_inlet = 2.9648E7, rho_inlet = 1734.9, Cp_outlet = 788.93, k_outlet = 117.11, sigma_outlet = 4.0885E7, rho_outlet = 2644.8, Cp_outlet_sleeve = 787.35, k_outlet_sleeve = 181.4, sigma_outlet_sleeve = 3.0311E7, rho_outlet_sleeve = 2281.3, Cp_inlet_sleeve = 854.15, k_inlet_sleeve = 165.58, sigma_inlet_sleeve = 4.4003E7, rho_inlet_sleeve = 2269.1) (degC), Point: 210Temperature (Cp_Al = 682.01, k_Al = 117.4, sigma_Al = 4.1996E7, rho_Al = 2932.6, Cp_inlet = 1071.8, k_inlet = 173.66, sigma_inlet = 2.9648E7, rho_inlet = 1734.9, Cp_outlet = 788.93, k_outlet = 117.11, sigma_outlet = 4.0885E7, rho_outlet = 2644.8, Cp_outlet_sleeve = 787.35, k_outlet_sleeve = 181.4, sigma_outlet_sleeve = 3.0311E7, rho_outlet_sleeve = 2281.3, Cp_inlet_sleeve = 854.15, k_inlet_sleeve = 165.58, sigma_inlet_sleeve = 4.4003E7, rho_inlet_sleeve = 2269.1) (degC), Point: 213Temperature (Cp_Al = 682.01, k_Al = 117.4, sigma_Al = 4.1996E7, rho_Al = 2932.6, Cp_inlet = 1071.8, k_inlet = 173.66, sigma_inlet = 2.9648E7, rho_inlet = 1734.9, Cp_outlet = 788.93, k_outlet = 117.11, sigma_outlet = 4.0885E7, rho_outlet = 2644.8, Cp_outlet_sleeve = 787.35, k_outlet_sleeve = 181.4, sigma_outlet_sleeve = 3.0311E7, rho_outlet_sleeve = 2281.3, Cp_inlet_sleeve = 854.15, k_inlet_sleeve = 165.58, sigma_inlet_sleeve = 4.4003E7, rho_inlet_sleeve = 2269.1) (degC), Point: 215Temperature (Cp_Al = 682.01, k_Al = 117.4, sigma_Al = 4.1996E7, rho_Al = 2932.6, Cp_inlet = 1071.8, k_inlet = 173.66, sigma_inlet = 2.9648E7, rho_inlet = 1734.9, Cp_outlet = 788.93, k_outlet = 117.11, sigma_outlet = 4.0885E7, rho_outlet = 2644.8, Cp_outlet_sleeve = 787.35, k_outlet_sleeve = 181.4, sigma_outlet_sleeve = 3.0311E7, rho_outlet_sleeve = 2281.3, Cp_inlet_sleeve = 854.15, k_inlet_sleeve = 165.58, sigma_inlet_sleeve = 4.4003E7, rho_inlet_sleeve = 2269.1) (degC), Point: 229Temperature (Cp_Al = 682.01, k_Al = 117.4, sigma_Al = 4.1996E7, rho_Al = 2932.6, Cp_inlet = 1071.8, k_inlet = 173.66, sigma_inlet = 2.9648E7, rho_inlet = 1734.9, Cp_outlet = 788.93, k_outlet = 117.11, sigma_outlet = 4.0885E7, rho_outlet = 2644.8, Cp_outlet_sleeve = 787.35, k_outlet_sleeve = 181.4, sigma_outlet_sleeve = 3.0311E7, rho_outlet_sleeve = 2281.3, Cp_inlet_sleeve = 854.15, k_inlet_sleeve = 165.58, sigma_inlet_sleeve = 4.4003E7, rho_inlet_sleeve = 2269.1) (degC), Point: 232Temperature (Cp_Al = 682.01, k_Al = 117.4, sigma_Al = 4.1996E7, rho_Al = 2932.6, Cp_inlet = 1071.8, k_inlet = 173.66, sigma_inlet = 2.9648E7, rho_inlet = 1734.9, Cp_outlet = 788.93, k_outlet = 117.11, sigma_outlet = 4.0885E7, rho_outlet = 2644.8, Cp_outlet_sleeve = 787.35, k_outlet_sleeve = 181.4, sigma_outlet_sleeve = 3.0311E7, rho_outlet_sleeve = 2281.3, Cp_inlet_sleeve = 854.15, k_inlet_sleeve = 165.58, sigma_inlet_sleeve = 4.4003E7, rho_inlet_sleeve = 2269.1) (degC), Point: 239Temperature (Cp_Al = 682.01, k_Al = 117.4, sigma_Al = 4.1996E7, rho_Al = 2932.6, Cp_inlet = 1071.8, k_inlet = 173.66, sigma_inlet = 2.9648E7, rho_inlet = 1734.9, Cp_outlet = 788.93, k_outlet = 117.11, sigma_outlet = 4.0885E7, rho_outlet = 2644.8, Cp_outlet_sleeve = 787.35, k_outlet_sleeve = 181.4, sigma_outlet_sleeve = 3.0311E7, rho_outlet_sleeve = 2281.3, Cp_inlet_sleeve = 854.15, k_inlet_sleeve = 165.58, sigma_inlet_sleeve = 4.4003E7, rho_inlet_sleeve = 2269.1) (degC), Point: 252Temperature (Cp_Al = 682.01, k_Al = 117.4, sigma_Al = 4.1996E7, rho_Al = 2932.6, Cp_inlet = 1071.8, k_inlet = 173.66, sigma_inlet = 2.9648E7, rho_inlet = 1734.9, Cp_outlet = 788.93, k_outlet = 117.11, sigma_outlet = 4.0885E7, rho_outlet = 2644.8, Cp_outlet_sleeve = 787.35, k_outlet_sleeve = 181.4, sigma_outlet_sleeve = 3.0311E7, rho_outlet_sleeve = 2281.3, Cp_inlet_sleeve = 854.15, k_inlet_sleeve = 165.58, sigma_inlet_sleeve = 4.4003E7, rho_inlet_sleeve = 2269.1) (degC), Point: 261Temperature (Cp_Al = 682.01, k_Al = 117.4, sigma_Al = 4.1996E7, rho_Al = 2932.6, Cp_inlet = 1071.8, k_inlet = 173.66, sigma_inlet = 2.9648E7, rho_inlet = 1734.9, Cp_outlet = 788.93, k_outlet = 117.11, sigma_outlet = 4.0885E7, rho_outlet = 2644.8, Cp_outlet_sleeve = 787.35, k_outlet_sleeve = 181.4, sigma_outlet_sleeve = 3.0311E7, rho_outlet_sleeve = 2281.3, Cp_inlet_sleeve = 854.15, k_inlet_sleeve = 165.58, sigma_inlet_sleeve = 4.4003E7, rho_inlet_sleeve = 2269.1) (degC), Point: 270Temperature (Cp_Al = 682.01, k_Al = 117.4, sigma_Al = 4.1996E7, rho_Al = 2932.6, Cp_inlet = 1071.8, k_inlet = 173.66, sigma_inlet = 2.9648E7, rho_inlet = 1734.9, Cp_outlet = 788.93, k_outlet = 117.11, sigma_outlet = 4.0885E7, rho_outlet = 2644.8, Cp_outlet_sleeve = 787.35, k_outlet_sleeve = 181.4, sigma_outlet_sleeve = 3.0311E7, rho_outlet_sleeve = 2281.3, Cp_inlet_sleeve = 854.15, k_inlet_sleeve = 165.58, sigma_inlet_sleeve = 4.4003E7, rho_inlet_sleeve = 2269.1) (degC), Point: 273Temperature (Cp_Al = 682.01, k_Al = 117.4, sigma_Al = 4.1996E7, rho_Al = 2932.6, Cp_inlet = 1071.8, k_inlet = 173.66, sigma_inlet = 2.9648E7, rho_inlet = 1734.9, Cp_outlet = 788.93, k_outlet = 117.11, sigma_outlet = 4.0885E7, rho_outlet = 2644.8, Cp_outlet_sleeve = 787.35, k_outlet_sleeve = 181.4, sigma_outlet_sleeve = 3.0311E7, rho_outlet_sleeve = 2281.3, Cp_inlet_sleeve = 854.15, k_inlet_sleeve = 165.58, sigma_inlet_sleeve = 4.4003E7, rho_inlet_sleeve = 2269.1) (degC), Point: 275
0                        21.69107083744757        21.016134517312366       21.1329326133756         21.00889061449459        21.016462648378933       21.1089166662332         21.009857214939586       21.03304183725055        21.00170667439278        21.024806365954362       21.001371570206516       21.000701445648303       21.00951458757038        21.000123516851204       21.00980439274167        21.02291564451258        21.00005607610302        21.01168695491475        21.00076467811516        21.00031408871007        21.001804600719822       21.000194157002625       21.000293774501415       21.00984274314544        21.119458441264726       21.015795153602937       21.687814155879437       21.008758410796702       21.14589929273427        21.019066003069952       21.768472854597007
3                        331.67357096665137       301.4986068979848        312.40525499525495       308.22030177361466       292.4951762577906        306.031337153138         304.61596901555504       292.28607406161245       287.21032183802436       298.8570273052379        301.2187773638168        293.54318819591265       290.5494721998589        277.39598909046435       282.4307564341516        265.92333165215643       261.48061790737825       270.2217062073413        271.6540256112198        264.9632229945737        264.2968170876609        258.34142518467866       261.15376842887235       306.4118510916221        308.2650138832166        293.8468921438026        326.47886766260126       309.52677244910126       313.8422973337073        299.8630681964818        334.6137493304084
6                        463.4068420135071        431.68147488803595       447.05776625284705       443.86845796887883       420.0734883609538        438.54136954898945       438.2095656706151        421.5434737912111        414.6256642045206        431.2641980842234        434.7166559326772        427.0158012179079        422.9334464956204        404.7762397407838        411.6440134087252        395.98391854109          389.90303648555494       403.34554771118894       405.82089486220616       399.25280285329575       397.6164824888127        387.17320455242043       391.5575660504603        439.7982261093201        440.53586896076126       421.0616172364289        455.5568040977446        442.20917752070307       445.50519159466546       426.75911750300224       463.1986338336177
9                        540.0364008402943        507.44522788739823       525.7157372123695        523.3815393001497        491.23546199443365       512.7682050965218        513.3114016409639        493.58404673530583       485.68405575359384       505.4293903080144        509.7620456964096        502.05690248016595       497.09464444547825       475.82678295705443       483.66783331597173       471.5120387413847        464.5120515308794        480.9902029980792        484.35167162806795       477.9590488577137        475.4747179681974        462.1064676976141        467.37470325478273       514.7909404895945        514.627682311453         492.00678152485534       527.4956218528741        519.9015759646467        522.317323638383         500.47350511064474       537.8680963455473
12                       593.6094628935916        560.4437089818139        580.7543810088454        579.0778706272237        540.8077272660587        564.4665632917092        565.6693660232592        543.726958445764         535.1887290691582        557.0884044108087        562.0842415270408        554.3806750285822        548.7549700206577        525.3296910875723        533.8025903162264        524.4191789678775        516.8092303271884        535.4246152700401        539.4666869593484        533.1758664342474        530.0304659283905        514.5859700604891        520.4432944672526        567.0851276833155        566.2429507153112        541.4408536338204        577.5751176564606        574.5163547610672        576.247214912471         552.2093083506325        590.2401041630302
15                       633.42698017794          599.8641787952533        621.6605124477593        620.4956429032338        577.9952614672999        603.2112737726144        604.9288204193821        581.3111120303931        572.3317378007156        595.8079185531298        601.3209537121533        593.6209121538438        587.4774478035795        562.4728654290517        571.3822013321793        563.8225145071502        555.791850382331         575.9600170949425        580.530719552388         574.323890640157         570.6577434255906        553.6894849660448        559.9559678102776        606.307512860828         604.9358496679209        578.5386194385244        615.1185686505469        615.2979139578383        616.4902805712244        590.8469226989115        629.3186111569338
18                       665.2480418383367        631.3939806757651        654.3264005885112        653.5715617682002        608.2254609184283        634.6592992588995        636.7969212782914        611.8410075082465        602.5315693565457        627.2392864095141        633.1741148207           625.4779153561989        618.9119793961235        592.6731895692594        601.9089635566182        595.3735065907582        587.0351183237049        608.3877331567077        613.3815544397496        607.2500906582048        603.1624635041683        585.0212428161714        591.5891460413939        638.1536037916342        636.3501943401076        608.7079234517774        645.6208802731704        647.9909316019572        648.7480689536977        621.8725963125887        660.6680271636806
21                       692.3891921882415        658.3075071096512        682.1544223281105        681.7398670768492        634.4540648209564        661.8917344358026        664.3841782322758        638.3124414728618        628.7386016647636        654.460261458709         660.7511434644073        653.0585005147395        646.135818488978         618.8805502959879        628.3778058466291        622.3289538530314        613.7509602837744        636.0544886136512        641.3990375998245        635.3349389360679        630.8952243065442        611.8058181237436        618.6097952881848        665.7273807827344        663.5596204381563        634.8932108328481        672.0725263626717        675.9195204400058        676.3135496513735        648.4450642650478        687.493047729698
24                       716.5872075963949        682.3193083668556        706.9301171965437        706.8055447509612        658.1319368807443        686.4195563826647        689.2165735384867        662.1944154862675        652.4007140266892        678.9799834604011        685.5763364817477        677.8868283503413        670.6580199568904        642.5427998509205        652.2574923110649        646.3942921516001        637.6210918323106        660.7167382954785        666.3597710987381        660.3554235812892        655.6145308771679        635.7314896493511        642.7286272493031        690.5514506436563        688.0712044894983        658.5393037842629        695.9397876699406        700.8312656418444        700.9151204083213        672.2179976330848        711.4717243506595
27                       738.7909818508939        704.3663732101246        729.6298600896646        729.7564039340933        680.0117965540715        709.0259622409519        712.0854690878111        684.2481716038934        674.2688378588788        701.5805616959865        708.4400667845372        700.7532973742775        693.2607431618479        664.4109718684947        674.3092459759158        668.5006829285957        659.5638841978665        683.3344850663389        689.2356296116114        683.2841984782169        678.2820051900409        657.7205497184791        664.8800550403694        713.4152953677675        710.6659412583094        680.3954203281517        717.9823970553693        723.6823208406026        723.4974597381463        694.0940707910054        733.5199916971974
