% Model:              brazing.mph
% Version:            COMSOL 5.3.0.223
% Date:               Oct 24 2018, 02:12
% Table:              Table 3 - 
% Time (s)               Temperature (Cp_Al = 883.92, k_Al = 151.27, sigma_Al = 4.0196E7, rho_Al = 2625.8, Cp_inlet = 914.7, k_inlet = 154.44, sigma_inlet = 3.5212E7, rho_inlet = 2564.4, Cp_outlet = 856.69, k_outlet = 155.54, sigma_outlet = 3.7456E7, rho_outlet = 2601.3, Cp_outlet_sleeve = 844.69, k_outlet_sleeve = 159.96, sigma_outlet_sleeve = 3.5456E7, rho_outlet_sleeve = 2667.4, Cp_inlet_sleeve = 930.42, k_inlet_sleeve = 154.89, sigma_inlet_sleeve = 4.0282E7, rho_inlet_sleeve = 2687.7) (degC), Point: 55Temperature (Cp_Al = 883.92, k_Al = 151.27, sigma_Al = 4.0196E7, rho_Al = 2625.8, Cp_inlet = 914.7, k_inlet = 154.44, sigma_inlet = 3.5212E7, rho_inlet = 2564.4, Cp_outlet = 856.69, k_outlet = 155.54, sigma_outlet = 3.7456E7, rho_outlet = 2601.3, Cp_outlet_sleeve = 844.69, k_outlet_sleeve = 159.96, sigma_outlet_sleeve = 3.5456E7, rho_outlet_sleeve = 2667.4, Cp_inlet_sleeve = 930.42, k_inlet_sleeve = 154.89, sigma_inlet_sleeve = 4.0282E7, rho_inlet_sleeve = 2687.7) (degC), Point: 56Temperature (Cp_Al = 883.92, k_Al = 151.27, sigma_Al = 4.0196E7, rho_Al = 2625.8, Cp_inlet = 914.7, k_inlet = 154.44, sigma_inlet = 3.5212E7, rho_inlet = 2564.4, Cp_outlet = 856.69, k_outlet = 155.54, sigma_outlet = 3.7456E7, rho_outlet = 2601.3, Cp_outlet_sleeve = 844.69, k_outlet_sleeve = 159.96, sigma_outlet_sleeve = 3.5456E7, rho_outlet_sleeve = 2667.4, Cp_inlet_sleeve = 930.42, k_inlet_sleeve = 154.89, sigma_inlet_sleeve = 4.0282E7, rho_inlet_sleeve = 2687.7) (degC), Point: 60Temperature (Cp_Al = 883.92, k_Al = 151.27, sigma_Al = 4.0196E7, rho_Al = 2625.8, Cp_inlet = 914.7, k_inlet = 154.44, sigma_inlet = 3.5212E7, rho_inlet = 2564.4, Cp_outlet = 856.69, k_outlet = 155.54, sigma_outlet = 3.7456E7, rho_outlet = 2601.3, Cp_outlet_sleeve = 844.69, k_outlet_sleeve = 159.96, sigma_outlet_sleeve = 3.5456E7, rho_outlet_sleeve = 2667.4, Cp_inlet_sleeve = 930.42, k_inlet_sleeve = 154.89, sigma_inlet_sleeve = 4.0282E7, rho_inlet_sleeve = 2687.7) (degC), Point: 69Temperature (Cp_Al = 883.92, k_Al = 151.27, sigma_Al = 4.0196E7, rho_Al = 2625.8, Cp_inlet = 914.7, k_inlet = 154.44, sigma_inlet = 3.5212E7, rho_inlet = 2564.4, Cp_outlet = 856.69, k_outlet = 155.54, sigma_outlet = 3.7456E7, rho_outlet = 2601.3, Cp_outlet_sleeve = 844.69, k_outlet_sleeve = 159.96, sigma_outlet_sleeve = 3.5456E7, rho_outlet_sleeve = 2667.4, Cp_inlet_sleeve = 930.42, k_inlet_sleeve = 154.89, sigma_inlet_sleeve = 4.0282E7, rho_inlet_sleeve = 2687.7) (degC), Point: 90Temperature (Cp_Al = 883.92, k_Al = 151.27, sigma_Al = 4.0196E7, rho_Al = 2625.8, Cp_inlet = 914.7, k_inlet = 154.44, sigma_inlet = 3.5212E7, rho_inlet = 2564.4, Cp_outlet = 856.69, k_outlet = 155.54, sigma_outlet = 3.7456E7, rho_outlet = 2601.3, Cp_outlet_sleeve = 844.69, k_outlet_sleeve = 159.96, sigma_outlet_sleeve = 3.5456E7, rho_outlet_sleeve = 2667.4, Cp_inlet_sleeve = 930.42, k_inlet_sleeve = 154.89, sigma_inlet_sleeve = 4.0282E7, rho_inlet_sleeve = 2687.7) (degC), Point: 98Temperature (Cp_Al = 883.92, k_Al = 151.27, sigma_Al = 4.0196E7, rho_Al = 2625.8, Cp_inlet = 914.7, k_inlet = 154.44, sigma_inlet = 3.5212E7, rho_inlet = 2564.4, Cp_outlet = 856.69, k_outlet = 155.54, sigma_outlet = 3.7456E7, rho_outlet = 2601.3, Cp_outlet_sleeve = 844.69, k_outlet_sleeve = 159.96, sigma_outlet_sleeve = 3.5456E7, rho_outlet_sleeve = 2667.4, Cp_inlet_sleeve = 930.42, k_inlet_sleeve = 154.89, sigma_inlet_sleeve = 4.0282E7, rho_inlet_sleeve = 2687.7) (degC), Point: 102Temperature (Cp_Al = 883.92, k_Al = 151.27, sigma_Al = 4.0196E7, rho_Al = 2625.8, Cp_inlet = 914.7, k_inlet = 154.44, sigma_inlet = 3.5212E7, rho_inlet = 2564.4, Cp_outlet = 856.69, k_outlet = 155.54, sigma_outlet = 3.7456E7, rho_outlet = 2601.3, Cp_outlet_sleeve = 844.69, k_outlet_sleeve = 159.96, sigma_outlet_sleeve = 3.5456E7, rho_outlet_sleeve = 2667.4, Cp_inlet_sleeve = 930.42, k_inlet_sleeve = 154.89, sigma_inlet_sleeve = 4.0282E7, rho_inlet_sleeve = 2687.7) (degC), Point: 127Temperature (Cp_Al = 883.92, k_Al = 151.27, sigma_Al = 4.0196E7, rho_Al = 2625.8, Cp_inlet = 914.7, k_inlet = 154.44, sigma_inlet = 3.5212E7, rho_inlet = 2564.4, Cp_outlet = 856.69, k_outlet = 155.54, sigma_outlet = 3.7456E7, rho_outlet = 2601.3, Cp_outlet_sleeve = 844.69, k_outlet_sleeve = 159.96, sigma_outlet_sleeve = 3.5456E7, rho_outlet_sleeve = 2667.4, Cp_inlet_sleeve = 930.42, k_inlet_sleeve = 154.89, sigma_inlet_sleeve = 4.0282E7, rho_inlet_sleeve = 2687.7) (degC), Point: 128Temperature (Cp_Al = 883.92, k_Al = 151.27, sigma_Al = 4.0196E7, rho_Al = 2625.8, Cp_inlet = 914.7, k_inlet = 154.44, sigma_inlet = 3.5212E7, rho_inlet = 2564.4, Cp_outlet = 856.69, k_outlet = 155.54, sigma_outlet = 3.7456E7, rho_outlet = 2601.3, Cp_outlet_sleeve = 844.69, k_outlet_sleeve = 159.96, sigma_outlet_sleeve = 3.5456E7, rho_outlet_sleeve = 2667.4, Cp_inlet_sleeve = 930.42, k_inlet_sleeve = 154.89, sigma_inlet_sleeve = 4.0282E7, rho_inlet_sleeve = 2687.7) (degC), Point: 134Temperature (Cp_Al = 883.92, k_Al = 151.27, sigma_Al = 4.0196E7, rho_Al = 2625.8, Cp_inlet = 914.7, k_inlet = 154.44, sigma_inlet = 3.5212E7, rho_inlet = 2564.4, Cp_outlet = 856.69, k_outlet = 155.54, sigma_outlet = 3.7456E7, rho_outlet = 2601.3, Cp_outlet_sleeve = 844.69, k_outlet_sleeve = 159.96, sigma_outlet_sleeve = 3.5456E7, rho_outlet_sleeve = 2667.4, Cp_inlet_sleeve = 930.42, k_inlet_sleeve = 154.89, sigma_inlet_sleeve = 4.0282E7, rho_inlet_sleeve = 2687.7) (degC), Point: 138Temperature (Cp_Al = 883.92, k_Al = 151.27, sigma_Al = 4.0196E7, rho_Al = 2625.8, Cp_inlet = 914.7, k_inlet = 154.44, sigma_inlet = 3.5212E7, rho_inlet = 2564.4, Cp_outlet = 856.69, k_outlet = 155.54, sigma_outlet = 3.7456E7, rho_outlet = 2601.3, Cp_outlet_sleeve = 844.69, k_outlet_sleeve = 159.96, sigma_outlet_sleeve = 3.5456E7, rho_outlet_sleeve = 2667.4, Cp_inlet_sleeve = 930.42, k_inlet_sleeve = 154.89, sigma_inlet_sleeve = 4.0282E7, rho_inlet_sleeve = 2687.7) (degC), Point: 151Temperature (Cp_Al = 883.92, k_Al = 151.27, sigma_Al = 4.0196E7, rho_Al = 2625.8, Cp_inlet = 914.7, k_inlet = 154.44, sigma_inlet = 3.5212E7, rho_inlet = 2564.4, Cp_outlet = 856.69, k_outlet = 155.54, sigma_outlet = 3.7456E7, rho_outlet = 2601.3, Cp_outlet_sleeve = 844.69, k_outlet_sleeve = 159.96, sigma_outlet_sleeve = 3.5456E7, rho_outlet_sleeve = 2667.4, Cp_inlet_sleeve = 930.42, k_inlet_sleeve = 154.89, sigma_inlet_sleeve = 4.0282E7, rho_inlet_sleeve = 2687.7) (degC), Point: 154Temperature (Cp_Al = 883.92, k_Al = 151.27, sigma_Al = 4.0196E7, rho_Al = 2625.8, Cp_inlet = 914.7, k_inlet = 154.44, sigma_inlet = 3.5212E7, rho_inlet = 2564.4, Cp_outlet = 856.69, k_outlet = 155.54, sigma_outlet = 3.7456E7, rho_outlet = 2601.3, Cp_outlet_sleeve = 844.69, k_outlet_sleeve = 159.96, sigma_outlet_sleeve = 3.5456E7, rho_outlet_sleeve = 2667.4, Cp_inlet_sleeve = 930.42, k_inlet_sleeve = 154.89, sigma_inlet_sleeve = 4.0282E7, rho_inlet_sleeve = 2687.7) (degC), Point: 159Temperature (Cp_Al = 883.92, k_Al = 151.27, sigma_Al = 4.0196E7, rho_Al = 2625.8, Cp_inlet = 914.7, k_inlet = 154.44, sigma_inlet = 3.5212E7, rho_inlet = 2564.4, Cp_outlet = 856.69, k_outlet = 155.54, sigma_outlet = 3.7456E7, rho_outlet = 2601.3, Cp_outlet_sleeve = 844.69, k_outlet_sleeve = 159.96, sigma_outlet_sleeve = 3.5456E7, rho_outlet_sleeve = 2667.4, Cp_inlet_sleeve = 930.42, k_inlet_sleeve = 154.89, sigma_inlet_sleeve = 4.0282E7, rho_inlet_sleeve = 2687.7) (degC), Point: 163Temperature (Cp_Al = 883.92, k_Al = 151.27, sigma_Al = 4.0196E7, rho_Al = 2625.8, Cp_inlet = 914.7, k_inlet = 154.44, sigma_inlet = 3.5212E7, rho_inlet = 2564.4, Cp_outlet = 856.69, k_outlet = 155.54, sigma_outlet = 3.7456E7, rho_outlet = 2601.3, Cp_outlet_sleeve = 844.69, k_outlet_sleeve = 159.96, sigma_outlet_sleeve = 3.5456E7, rho_outlet_sleeve = 2667.4, Cp_inlet_sleeve = 930.42, k_inlet_sleeve = 154.89, sigma_inlet_sleeve = 4.0282E7, rho_inlet_sleeve = 2687.7) (degC), Point: 167Temperature (Cp_Al = 883.92, k_Al = 151.27, sigma_Al = 4.0196E7, rho_Al = 2625.8, Cp_inlet = 914.7, k_inlet = 154.44, sigma_inlet = 3.5212E7, rho_inlet = 2564.4, Cp_outlet = 856.69, k_outlet = 155.54, sigma_outlet = 3.7456E7, rho_outlet = 2601.3, Cp_outlet_sleeve = 844.69, k_outlet_sleeve = 159.96, sigma_outlet_sleeve = 3.5456E7, rho_outlet_sleeve = 2667.4, Cp_inlet_sleeve = 930.42, k_inlet_sleeve = 154.89, sigma_inlet_sleeve = 4.0282E7, rho_inlet_sleeve = 2687.7) (degC), Point: 168Temperature (Cp_Al = 883.92, k_Al = 151.27, sigma_Al = 4.0196E7, rho_Al = 2625.8, Cp_inlet = 914.7, k_inlet = 154.44, sigma_inlet = 3.5212E7, rho_inlet = 2564.4, Cp_outlet = 856.69, k_outlet = 155.54, sigma_outlet = 3.7456E7, rho_outlet = 2601.3, Cp_outlet_sleeve = 844.69, k_outlet_sleeve = 159.96, sigma_outlet_sleeve = 3.5456E7, rho_outlet_sleeve = 2667.4, Cp_inlet_sleeve = 930.42, k_inlet_sleeve = 154.89, sigma_inlet_sleeve = 4.0282E7, rho_inlet_sleeve = 2687.7) (degC), Point: 172Temperature (Cp_Al = 883.92, k_Al = 151.27, sigma_Al = 4.0196E7, rho_Al = 2625.8, Cp_inlet = 914.7, k_inlet = 154.44, sigma_inlet = 3.5212E7, rho_inlet = 2564.4, Cp_outlet = 856.69, k_outlet = 155.54, sigma_outlet = 3.7456E7, rho_outlet = 2601.3, Cp_outlet_sleeve = 844.69, k_outlet_sleeve = 159.96, sigma_outlet_sleeve = 3.5456E7, rho_outlet_sleeve = 2667.4, Cp_inlet_sleeve = 930.42, k_inlet_sleeve = 154.89, sigma_inlet_sleeve = 4.0282E7, rho_inlet_sleeve = 2687.7) (degC), Point: 181Temperature (Cp_Al = 883.92, k_Al = 151.27, sigma_Al = 4.0196E7, rho_Al = 2625.8, Cp_inlet = 914.7, k_inlet = 154.44, sigma_inlet = 3.5212E7, rho_inlet = 2564.4, Cp_outlet = 856.69, k_outlet = 155.54, sigma_outlet = 3.7456E7, rho_outlet = 2601.3, Cp_outlet_sleeve = 844.69, k_outlet_sleeve = 159.96, sigma_outlet_sleeve = 3.5456E7, rho_outlet_sleeve = 2667.4, Cp_inlet_sleeve = 930.42, k_inlet_sleeve = 154.89, sigma_inlet_sleeve = 4.0282E7, rho_inlet_sleeve = 2687.7) (degC), Point: 201Temperature (Cp_Al = 883.92, k_Al = 151.27, sigma_Al = 4.0196E7, rho_Al = 2625.8, Cp_inlet = 914.7, k_inlet = 154.44, sigma_inlet = 3.5212E7, rho_inlet = 2564.4, Cp_outlet = 856.69, k_outlet = 155.54, sigma_outlet = 3.7456E7, rho_outlet = 2601.3, Cp_outlet_sleeve = 844.69, k_outlet_sleeve = 159.96, sigma_outlet_sleeve = 3.5456E7, rho_outlet_sleeve = 2667.4, Cp_inlet_sleeve = 930.42, k_inlet_sleeve = 154.89, sigma_inlet_sleeve = 4.0282E7, rho_inlet_sleeve = 2687.7) (degC), Point: 210Temperature (Cp_Al = 883.92, k_Al = 151.27, sigma_Al = 4.0196E7, rho_Al = 2625.8, Cp_inlet = 914.7, k_inlet = 154.44, sigma_inlet = 3.5212E7, rho_inlet = 2564.4, Cp_outlet = 856.69, k_outlet = 155.54, sigma_outlet = 3.7456E7, rho_outlet = 2601.3, Cp_outlet_sleeve = 844.69, k_outlet_sleeve = 159.96, sigma_outlet_sleeve = 3.5456E7, rho_outlet_sleeve = 2667.4, Cp_inlet_sleeve = 930.42, k_inlet_sleeve = 154.89, sigma_inlet_sleeve = 4.0282E7, rho_inlet_sleeve = 2687.7) (degC), Point: 213Temperature (Cp_Al = 883.92, k_Al = 151.27, sigma_Al = 4.0196E7, rho_Al = 2625.8, Cp_inlet = 914.7, k_inlet = 154.44, sigma_inlet = 3.5212E7, rho_inlet = 2564.4, Cp_outlet = 856.69, k_outlet = 155.54, sigma_outlet = 3.7456E7, rho_outlet = 2601.3, Cp_outlet_sleeve = 844.69, k_outlet_sleeve = 159.96, sigma_outlet_sleeve = 3.5456E7, rho_outlet_sleeve = 2667.4, Cp_inlet_sleeve = 930.42, k_inlet_sleeve = 154.89, sigma_inlet_sleeve = 4.0282E7, rho_inlet_sleeve = 2687.7) (degC), Point: 215Temperature (Cp_Al = 883.92, k_Al = 151.27, sigma_Al = 4.0196E7, rho_Al = 2625.8, Cp_inlet = 914.7, k_inlet = 154.44, sigma_inlet = 3.5212E7, rho_inlet = 2564.4, Cp_outlet = 856.69, k_outlet = 155.54, sigma_outlet = 3.7456E7, rho_outlet = 2601.3, Cp_outlet_sleeve = 844.69, k_outlet_sleeve = 159.96, sigma_outlet_sleeve = 3.5456E7, rho_outlet_sleeve = 2667.4, Cp_inlet_sleeve = 930.42, k_inlet_sleeve = 154.89, sigma_inlet_sleeve = 4.0282E7, rho_inlet_sleeve = 2687.7) (degC), Point: 229Temperature (Cp_Al = 883.92, k_Al = 151.27, sigma_Al = 4.0196E7, rho_Al = 2625.8, Cp_inlet = 914.7, k_inlet = 154.44, sigma_inlet = 3.5212E7, rho_inlet = 2564.4, Cp_outlet = 856.69, k_outlet = 155.54, sigma_outlet = 3.7456E7, rho_outlet = 2601.3, Cp_outlet_sleeve = 844.69, k_outlet_sleeve = 159.96, sigma_outlet_sleeve = 3.5456E7, rho_outlet_sleeve = 2667.4, Cp_inlet_sleeve = 930.42, k_inlet_sleeve = 154.89, sigma_inlet_sleeve = 4.0282E7, rho_inlet_sleeve = 2687.7) (degC), Point: 232Temperature (Cp_Al = 883.92, k_Al = 151.27, sigma_Al = 4.0196E7, rho_Al = 2625.8, Cp_inlet = 914.7, k_inlet = 154.44, sigma_inlet = 3.5212E7, rho_inlet = 2564.4, Cp_outlet = 856.69, k_outlet = 155.54, sigma_outlet = 3.7456E7, rho_outlet = 2601.3, Cp_outlet_sleeve = 844.69, k_outlet_sleeve = 159.96, sigma_outlet_sleeve = 3.5456E7, rho_outlet_sleeve = 2667.4, Cp_inlet_sleeve = 930.42, k_inlet_sleeve = 154.89, sigma_inlet_sleeve = 4.0282E7, rho_inlet_sleeve = 2687.7) (degC), Point: 239Temperature (Cp_Al = 883.92, k_Al = 151.27, sigma_Al = 4.0196E7, rho_Al = 2625.8, Cp_inlet = 914.7, k_inlet = 154.44, sigma_inlet = 3.5212E7, rho_inlet = 2564.4, Cp_outlet = 856.69, k_outlet = 155.54, sigma_outlet = 3.7456E7, rho_outlet = 2601.3, Cp_outlet_sleeve = 844.69, k_outlet_sleeve = 159.96, sigma_outlet_sleeve = 3.5456E7, rho_outlet_sleeve = 2667.4, Cp_inlet_sleeve = 930.42, k_inlet_sleeve = 154.89, sigma_inlet_sleeve = 4.0282E7, rho_inlet_sleeve = 2687.7) (degC), Point: 252Temperature (Cp_Al = 883.92, k_Al = 151.27, sigma_Al = 4.0196E7, rho_Al = 2625.8, Cp_inlet = 914.7, k_inlet = 154.44, sigma_inlet = 3.5212E7, rho_inlet = 2564.4, Cp_outlet = 856.69, k_outlet = 155.54, sigma_outlet = 3.7456E7, rho_outlet = 2601.3, Cp_outlet_sleeve = 844.69, k_outlet_sleeve = 159.96, sigma_outlet_sleeve = 3.5456E7, rho_outlet_sleeve = 2667.4, Cp_inlet_sleeve = 930.42, k_inlet_sleeve = 154.89, sigma_inlet_sleeve = 4.0282E7, rho_inlet_sleeve = 2687.7) (degC), Point: 261Temperature (Cp_Al = 883.92, k_Al = 151.27, sigma_Al = 4.0196E7, rho_Al = 2625.8, Cp_inlet = 914.7, k_inlet = 154.44, sigma_inlet = 3.5212E7, rho_inlet = 2564.4, Cp_outlet = 856.69, k_outlet = 155.54, sigma_outlet = 3.7456E7, rho_outlet = 2601.3, Cp_outlet_sleeve = 844.69, k_outlet_sleeve = 159.96, sigma_outlet_sleeve = 3.5456E7, rho_outlet_sleeve = 2667.4, Cp_inlet_sleeve = 930.42, k_inlet_sleeve = 154.89, sigma_inlet_sleeve = 4.0282E7, rho_inlet_sleeve = 2687.7) (degC), Point: 270Temperature (Cp_Al = 883.92, k_Al = 151.27, sigma_Al = 4.0196E7, rho_Al = 2625.8, Cp_inlet = 914.7, k_inlet = 154.44, sigma_inlet = 3.5212E7, rho_inlet = 2564.4, Cp_outlet = 856.69, k_outlet = 155.54, sigma_outlet = 3.7456E7, rho_outlet = 2601.3, Cp_outlet_sleeve = 844.69, k_outlet_sleeve = 159.96, sigma_outlet_sleeve = 3.5456E7, rho_outlet_sleeve = 2667.4, Cp_inlet_sleeve = 930.42, k_inlet_sleeve = 154.89, sigma_inlet_sleeve = 4.0282E7, rho_inlet_sleeve = 2687.7) (degC), Point: 273Temperature (Cp_Al = 883.92, k_Al = 151.27, sigma_Al = 4.0196E7, rho_Al = 2625.8, Cp_inlet = 914.7, k_inlet = 154.44, sigma_inlet = 3.5212E7, rho_inlet = 2564.4, Cp_outlet = 856.69, k_outlet = 155.54, sigma_outlet = 3.7456E7, rho_outlet = 2601.3, Cp_outlet_sleeve = 844.69, k_outlet_sleeve = 159.96, sigma_outlet_sleeve = 3.5456E7, rho_outlet_sleeve = 2667.4, Cp_inlet_sleeve = 930.42, k_inlet_sleeve = 154.89, sigma_inlet_sleeve = 4.0282E7, rho_inlet_sleeve = 2687.7) (degC), Point: 275
0                        21.607873253627247       21.012141865250726       21.131875484508612       21.008556366083496       21.013126323160407       21.108275867594784       21.008489786447285       21.02473863048658        21.001372721729126       21.02460307534875        21.001196422846704       21.000626962694696       21.00952736628483        21.00010663244217        21.007353500741317       21.019947475732522       21.000053477524546       21.011559997590325       21.000723266378543       21.00029288693031        21.00177302257117        21.000166108903215       21.000249735517855       21.008478469844704       21.118780169219917       21.01260526258619        21.52367367844232        21.008447050335974       21.144754167870303       21.01520872214485        21.67628848694227
3                        305.1021159287818        270.4501849531499        279.9955192003712        275.35957721120405       257.26752547463093       269.58722532190006       267.75902556832807       256.35318389691076       251.62767923970773       262.19594797767604       264.09757627346335       255.72049812535545       253.18918664239754       240.84011567885284       245.63408796852855       237.59957698372637       233.03484403368947       242.20573855110183       243.7297444059186        237.43729581560257       236.4689921820401        229.70195205762076       232.4753343176563        269.82491231448284       272.09356331604636       258.89174811520854       292.6700864840267        277.06835389110586       281.96625881251407       269.8396974621643        309.47786219752174
6                        429.5266881910601        393.36776799203176       406.52462570933574       402.5561790009324        381.2191249074733        398.38462790716824       397.5700589085269        382.14963140133284       375.4210838717937        390.88727135522424       393.8077298485048        385.41991625939943       381.87423220805124       364.62092441034054       371.40903219451866       360.8279912777705        354.6853091405708        367.6492665717959        369.87549849231664       363.4976603628222        361.88657296939016       351.504054645309         355.7985241144589        399.43323730082284       400.66297334934234       382.51254759007827       418.31126220287695       401.9450053725117        406.1588478495411        390.1830904272408        431.43857715355307
9                        503.18392901826667       466.1107528349469        481.92705586990155       478.6732727308828        452.24013626478416       472.7058903235493        472.7951619993577        454.23319710993826       446.3482888421139        465.1509092943371        468.97866940067865       460.5838476154951        456.13208137551715       435.5385767781928        443.47379459378374       433.62366859818087       426.52081690847865       442.27143528905833       445.2411489068486        438.989377463404         436.6667807933263        423.5942443633613        428.817558912722         474.55216458538985       474.85517717483117       453.3349610769435        490.29922236483253       476.65909472364126       480.1313602019784        461.30930595752193       503.55636228466744
12                       553.456265402473         515.7648960279724        533.5552048719353        530.9008103681227        499.55842572392385       522.3208601203812        523.1072099683095        502.230150975226         493.6072773362962        514.7308920208593        519.2580630410791        510.86031178353437       505.7091858943496        482.7910232407238        491.4573971619029        483.38909236725874       475.6373632387475        493.4494788095857        497.04008939687196       490.86858058791825       487.9389087388132        472.8523397555615        478.70680973350704       524.803139190878         524.3912089148255        500.5270368526004        538.2348110568538        528.0944256025065        530.937130283055         509.9937206385755        552.9138209831738
15                       591.7284571588598        553.5807044495675        572.9111105521205        570.7539272182371        535.0371874287649        559.4833893196907        560.8075257729932        538.1829759962754        529.0454313549682        551.8700167263348        556.9366642471618        548.5397639247273        542.8489303467826        518.2269387907623        527.4028354163015        521.3361373131509        513.1066268752744        532.5215605373874        536.625818658663         530.5347240814733        527.0961573940432        510.4288432657165        516.750832740379         562.466448331413         561.5028915348988        535.9215436984846        574.1475191918287        567.4837136291009        569.8002469351967        547.1986859001843        590.6158370294905
18                       622.2672415750687        583.7705791810769        604.3380983437183        602.600400466437         562.9652809838616        588.6796495818395        590.4273316765365        566.4524092062529        556.9456192449128        581.0506881658288        586.5421046651337        578.1477846744901        572.0317979636591        546.1270424334255        555.6681729106131        551.6628239172936        543.0691955269888        563.767317969787         568.3039500163711        562.293057250608         558.4219454940592        540.4793694132504        547.1595617616825        592.0645215069648        590.6665289481159        563.7931328584831        602.3905313168805        599.0679812185551        600.9383730368747        577.0043464387119        620.8009678927317
21                       648.2284862547315        609.4501605225687        631.0503388964753        629.6735646863804        586.5057984948852        613.2253931435379        615.3192308833728        590.255136924875         580.4662280688881        605.5856690501093        611.4241450431341        603.033086964752         596.5696133134875        569.6486321783111        579.4686098766068        577.4775835448908        568.5910175053508        590.3570346175408        595.2649859396614        589.3309422632493        585.086229733921         566.0772032965644        573.0466045491853        616.9435927345921        615.1906225828229        587.2943362472448        626.1751776438526        625.990141647021         627.4759455968964        602.4314400358411        646.5332818642228
24                       671.2987953526881        632.2846089096269        654.7682133895186        653.7057987133076        607.3511244729735        634.9015532984432        637.2875447226687        611.3126933380453        601.2969254867032        627.2541947680816        633.3855002944832        624.9979038494855        618.2411784577155        590.4808345184581        600.5249031148194        600.4420865686941        591.3110387228495        613.9881714747813        619.2190018505332        613.3560483109311        608.7854273894372        588.8639628107967        596.0752403878736        638.9045225148544        636.8520677235025        608.1115243773439        647.2199845880185        649.9346889577905        651.0855750009185        625.0937846007927        669.4499598286396
27                       692.403620792042         653.1878185729927        676.4368252978542        675.6496334767413        626.4416388637075        654.699288885419         657.3375409610602        630.5814211437767        620.3764349446386        647.0464028492705        653.43047859469          645.0462947066643        638.0364020954698        609.5620663328517        619.7929534357977        621.4677063453097        612.1282947103244        635.5930180518923        641.1061274042083        635.3075555712496        630.4515133893283        609.740108071744         617.1577607967981        658.9505526785446        656.639626232555         627.1814327524706        666.4794936953833        671.8279133291243        672.6859171932332        645.8760555770475        690.4485336326175
