% Model:              brazing.mph
% Version:            COMSOL 5.3.0.223
% Date:               Oct 24 2018, 06:33
% Table:              Table 3 - 
% Time (s)               Temperature (Cp_Al = 911.33, k_Al = 149.18, sigma_Al = 3.9523E7, rho_Al = 2566.7, Cp_inlet = 881.5, k_inlet = 152.88, sigma_inlet = 3.4586E7, rho_inlet = 2580.3, Cp_outlet = 847.1, k_outlet = 157.79, sigma_outlet = 3.6914E7, rho_outlet = 2547.7, Cp_outlet_sleeve = 832.43, k_outlet_sleeve = 161.02, sigma_outlet_sleeve = 3.5802E7, rho_outlet_sleeve = 2511.3, Cp_inlet_sleeve = 926.17, k_inlet_sleeve = 153.53, sigma_inlet_sleeve = 4.1458E7, rho_inlet_sleeve = 2650.9) (degC), Point: 55Temperature (Cp_Al = 911.33, k_Al = 149.18, sigma_Al = 3.9523E7, rho_Al = 2566.7, Cp_inlet = 881.5, k_inlet = 152.88, sigma_inlet = 3.4586E7, rho_inlet = 2580.3, Cp_outlet = 847.1, k_outlet = 157.79, sigma_outlet = 3.6914E7, rho_outlet = 2547.7, Cp_outlet_sleeve = 832.43, k_outlet_sleeve = 161.02, sigma_outlet_sleeve = 3.5802E7, rho_outlet_sleeve = 2511.3, Cp_inlet_sleeve = 926.17, k_inlet_sleeve = 153.53, sigma_inlet_sleeve = 4.1458E7, rho_inlet_sleeve = 2650.9) (degC), Point: 56Temperature (Cp_Al = 911.33, k_Al = 149.18, sigma_Al = 3.9523E7, rho_Al = 2566.7, Cp_inlet = 881.5, k_inlet = 152.88, sigma_inlet = 3.4586E7, rho_inlet = 2580.3, Cp_outlet = 847.1, k_outlet = 157.79, sigma_outlet = 3.6914E7, rho_outlet = 2547.7, Cp_outlet_sleeve = 832.43, k_outlet_sleeve = 161.02, sigma_outlet_sleeve = 3.5802E7, rho_outlet_sleeve = 2511.3, Cp_inlet_sleeve = 926.17, k_inlet_sleeve = 153.53, sigma_inlet_sleeve = 4.1458E7, rho_inlet_sleeve = 2650.9) (degC), Point: 60Temperature (Cp_Al = 911.33, k_Al = 149.18, sigma_Al = 3.9523E7, rho_Al = 2566.7, Cp_inlet = 881.5, k_inlet = 152.88, sigma_inlet = 3.4586E7, rho_inlet = 2580.3, Cp_outlet = 847.1, k_outlet = 157.79, sigma_outlet = 3.6914E7, rho_outlet = 2547.7, Cp_outlet_sleeve = 832.43, k_outlet_sleeve = 161.02, sigma_outlet_sleeve = 3.5802E7, rho_outlet_sleeve = 2511.3, Cp_inlet_sleeve = 926.17, k_inlet_sleeve = 153.53, sigma_inlet_sleeve = 4.1458E7, rho_inlet_sleeve = 2650.9) (degC), Point: 69Temperature (Cp_Al = 911.33, k_Al = 149.18, sigma_Al = 3.9523E7, rho_Al = 2566.7, Cp_inlet = 881.5, k_inlet = 152.88, sigma_inlet = 3.4586E7, rho_inlet = 2580.3, Cp_outlet = 847.1, k_outlet = 157.79, sigma_outlet = 3.6914E7, rho_outlet = 2547.7, Cp_outlet_sleeve = 832.43, k_outlet_sleeve = 161.02, sigma_outlet_sleeve = 3.5802E7, rho_outlet_sleeve = 2511.3, Cp_inlet_sleeve = 926.17, k_inlet_sleeve = 153.53, sigma_inlet_sleeve = 4.1458E7, rho_inlet_sleeve = 2650.9) (degC), Point: 90Temperature (Cp_Al = 911.33, k_Al = 149.18, sigma_Al = 3.9523E7, rho_Al = 2566.7, Cp_inlet = 881.5, k_inlet = 152.88, sigma_inlet = 3.4586E7, rho_inlet = 2580.3, Cp_outlet = 847.1, k_outlet = 157.79, sigma_outlet = 3.6914E7, rho_outlet = 2547.7, Cp_outlet_sleeve = 832.43, k_outlet_sleeve = 161.02, sigma_outlet_sleeve = 3.5802E7, rho_outlet_sleeve = 2511.3, Cp_inlet_sleeve = 926.17, k_inlet_sleeve = 153.53, sigma_inlet_sleeve = 4.1458E7, rho_inlet_sleeve = 2650.9) (degC), Point: 98Temperature (Cp_Al = 911.33, k_Al = 149.18, sigma_Al = 3.9523E7, rho_Al = 2566.7, Cp_inlet = 881.5, k_inlet = 152.88, sigma_inlet = 3.4586E7, rho_inlet = 2580.3, Cp_outlet = 847.1, k_outlet = 157.79, sigma_outlet = 3.6914E7, rho_outlet = 2547.7, Cp_outlet_sleeve = 832.43, k_outlet_sleeve = 161.02, sigma_outlet_sleeve = 3.5802E7, rho_outlet_sleeve = 2511.3, Cp_inlet_sleeve = 926.17, k_inlet_sleeve = 153.53, sigma_inlet_sleeve = 4.1458E7, rho_inlet_sleeve = 2650.9) (degC), Point: 102Temperature (Cp_Al = 911.33, k_Al = 149.18, sigma_Al = 3.9523E7, rho_Al = 2566.7, Cp_inlet = 881.5, k_inlet = 152.88, sigma_inlet = 3.4586E7, rho_inlet = 2580.3, Cp_outlet = 847.1, k_outlet = 157.79, sigma_outlet = 3.6914E7, rho_outlet = 2547.7, Cp_outlet_sleeve = 832.43, k_outlet_sleeve = 161.02, sigma_outlet_sleeve = 3.5802E7, rho_outlet_sleeve = 2511.3, Cp_inlet_sleeve = 926.17, k_inlet_sleeve = 153.53, sigma_inlet_sleeve = 4.1458E7, rho_inlet_sleeve = 2650.9) (degC), Point: 127Temperature (Cp_Al = 911.33, k_Al = 149.18, sigma_Al = 3.9523E7, rho_Al = 2566.7, Cp_inlet = 881.5, k_inlet = 152.88, sigma_inlet = 3.4586E7, rho_inlet = 2580.3, Cp_outlet = 847.1, k_outlet = 157.79, sigma_outlet = 3.6914E7, rho_outlet = 2547.7, Cp_outlet_sleeve = 832.43, k_outlet_sleeve = 161.02, sigma_outlet_sleeve = 3.5802E7, rho_outlet_sleeve = 2511.3, Cp_inlet_sleeve = 926.17, k_inlet_sleeve = 153.53, sigma_inlet_sleeve = 4.1458E7, rho_inlet_sleeve = 2650.9) (degC), Point: 128Temperature (Cp_Al = 911.33, k_Al = 149.18, sigma_Al = 3.9523E7, rho_Al = 2566.7, Cp_inlet = 881.5, k_inlet = 152.88, sigma_inlet = 3.4586E7, rho_inlet = 2580.3, Cp_outlet = 847.1, k_outlet = 157.79, sigma_outlet = 3.6914E7, rho_outlet = 2547.7, Cp_outlet_sleeve = 832.43, k_outlet_sleeve = 161.02, sigma_outlet_sleeve = 3.5802E7, rho_outlet_sleeve = 2511.3, Cp_inlet_sleeve = 926.17, k_inlet_sleeve = 153.53, sigma_inlet_sleeve = 4.1458E7, rho_inlet_sleeve = 2650.9) (degC), Point: 134Temperature (Cp_Al = 911.33, k_Al = 149.18, sigma_Al = 3.9523E7, rho_Al = 2566.7, Cp_inlet = 881.5, k_inlet = 152.88, sigma_inlet = 3.4586E7, rho_inlet = 2580.3, Cp_outlet = 847.1, k_outlet = 157.79, sigma_outlet = 3.6914E7, rho_outlet = 2547.7, Cp_outlet_sleeve = 832.43, k_outlet_sleeve = 161.02, sigma_outlet_sleeve = 3.5802E7, rho_outlet_sleeve = 2511.3, Cp_inlet_sleeve = 926.17, k_inlet_sleeve = 153.53, sigma_inlet_sleeve = 4.1458E7, rho_inlet_sleeve = 2650.9) (degC), Point: 138Temperature (Cp_Al = 911.33, k_Al = 149.18, sigma_Al = 3.9523E7, rho_Al = 2566.7, Cp_inlet = 881.5, k_inlet = 152.88, sigma_inlet = 3.4586E7, rho_inlet = 2580.3, Cp_outlet = 847.1, k_outlet = 157.79, sigma_outlet = 3.6914E7, rho_outlet = 2547.7, Cp_outlet_sleeve = 832.43, k_outlet_sleeve = 161.02, sigma_outlet_sleeve = 3.5802E7, rho_outlet_sleeve = 2511.3, Cp_inlet_sleeve = 926.17, k_inlet_sleeve = 153.53, sigma_inlet_sleeve = 4.1458E7, rho_inlet_sleeve = 2650.9) (degC), Point: 151Temperature (Cp_Al = 911.33, k_Al = 149.18, sigma_Al = 3.9523E7, rho_Al = 2566.7, Cp_inlet = 881.5, k_inlet = 152.88, sigma_inlet = 3.4586E7, rho_inlet = 2580.3, Cp_outlet = 847.1, k_outlet = 157.79, sigma_outlet = 3.6914E7, rho_outlet = 2547.7, Cp_outlet_sleeve = 832.43, k_outlet_sleeve = 161.02, sigma_outlet_sleeve = 3.5802E7, rho_outlet_sleeve = 2511.3, Cp_inlet_sleeve = 926.17, k_inlet_sleeve = 153.53, sigma_inlet_sleeve = 4.1458E7, rho_inlet_sleeve = 2650.9) (degC), Point: 154Temperature (Cp_Al = 911.33, k_Al = 149.18, sigma_Al = 3.9523E7, rho_Al = 2566.7, Cp_inlet = 881.5, k_inlet = 152.88, sigma_inlet = 3.4586E7, rho_inlet = 2580.3, Cp_outlet = 847.1, k_outlet = 157.79, sigma_outlet = 3.6914E7, rho_outlet = 2547.7, Cp_outlet_sleeve = 832.43, k_outlet_sleeve = 161.02, sigma_outlet_sleeve = 3.5802E7, rho_outlet_sleeve = 2511.3, Cp_inlet_sleeve = 926.17, k_inlet_sleeve = 153.53, sigma_inlet_sleeve = 4.1458E7, rho_inlet_sleeve = 2650.9) (degC), Point: 159Temperature (Cp_Al = 911.33, k_Al = 149.18, sigma_Al = 3.9523E7, rho_Al = 2566.7, Cp_inlet = 881.5, k_inlet = 152.88, sigma_inlet = 3.4586E7, rho_inlet = 2580.3, Cp_outlet = 847.1, k_outlet = 157.79, sigma_outlet = 3.6914E7, rho_outlet = 2547.7, Cp_outlet_sleeve = 832.43, k_outlet_sleeve = 161.02, sigma_outlet_sleeve = 3.5802E7, rho_outlet_sleeve = 2511.3, Cp_inlet_sleeve = 926.17, k_inlet_sleeve = 153.53, sigma_inlet_sleeve = 4.1458E7, rho_inlet_sleeve = 2650.9) (degC), Point: 163Temperature (Cp_Al = 911.33, k_Al = 149.18, sigma_Al = 3.9523E7, rho_Al = 2566.7, Cp_inlet = 881.5, k_inlet = 152.88, sigma_inlet = 3.4586E7, rho_inlet = 2580.3, Cp_outlet = 847.1, k_outlet = 157.79, sigma_outlet = 3.6914E7, rho_outlet = 2547.7, Cp_outlet_sleeve = 832.43, k_outlet_sleeve = 161.02, sigma_outlet_sleeve = 3.5802E7, rho_outlet_sleeve = 2511.3, Cp_inlet_sleeve = 926.17, k_inlet_sleeve = 153.53, sigma_inlet_sleeve = 4.1458E7, rho_inlet_sleeve = 2650.9) (degC), Point: 167Temperature (Cp_Al = 911.33, k_Al = 149.18, sigma_Al = 3.9523E7, rho_Al = 2566.7, Cp_inlet = 881.5, k_inlet = 152.88, sigma_inlet = 3.4586E7, rho_inlet = 2580.3, Cp_outlet = 847.1, k_outlet = 157.79, sigma_outlet = 3.6914E7, rho_outlet = 2547.7, Cp_outlet_sleeve = 832.43, k_outlet_sleeve = 161.02, sigma_outlet_sleeve = 3.5802E7, rho_outlet_sleeve = 2511.3, Cp_inlet_sleeve = 926.17, k_inlet_sleeve = 153.53, sigma_inlet_sleeve = 4.1458E7, rho_inlet_sleeve = 2650.9) (degC), Point: 168Temperature (Cp_Al = 911.33, k_Al = 149.18, sigma_Al = 3.9523E7, rho_Al = 2566.7, Cp_inlet = 881.5, k_inlet = 152.88, sigma_inlet = 3.4586E7, rho_inlet = 2580.3, Cp_outlet = 847.1, k_outlet = 157.79, sigma_outlet = 3.6914E7, rho_outlet = 2547.7, Cp_outlet_sleeve = 832.43, k_outlet_sleeve = 161.02, sigma_outlet_sleeve = 3.5802E7, rho_outlet_sleeve = 2511.3, Cp_inlet_sleeve = 926.17, k_inlet_sleeve = 153.53, sigma_inlet_sleeve = 4.1458E7, rho_inlet_sleeve = 2650.9) (degC), Point: 172Temperature (Cp_Al = 911.33, k_Al = 149.18, sigma_Al = 3.9523E7, rho_Al = 2566.7, Cp_inlet = 881.5, k_inlet = 152.88, sigma_inlet = 3.4586E7, rho_inlet = 2580.3, Cp_outlet = 847.1, k_outlet = 157.79, sigma_outlet = 3.6914E7, rho_outlet = 2547.7, Cp_outlet_sleeve = 832.43, k_outlet_sleeve = 161.02, sigma_outlet_sleeve = 3.5802E7, rho_outlet_sleeve = 2511.3, Cp_inlet_sleeve = 926.17, k_inlet_sleeve = 153.53, sigma_inlet_sleeve = 4.1458E7, rho_inlet_sleeve = 2650.9) (degC), Point: 181Temperature (Cp_Al = 911.33, k_Al = 149.18, sigma_Al = 3.9523E7, rho_Al = 2566.7, Cp_inlet = 881.5, k_inlet = 152.88, sigma_inlet = 3.4586E7, rho_inlet = 2580.3, Cp_outlet = 847.1, k_outlet = 157.79, sigma_outlet = 3.6914E7, rho_outlet = 2547.7, Cp_outlet_sleeve = 832.43, k_outlet_sleeve = 161.02, sigma_outlet_sleeve = 3.5802E7, rho_outlet_sleeve = 2511.3, Cp_inlet_sleeve = 926.17, k_inlet_sleeve = 153.53, sigma_inlet_sleeve = 4.1458E7, rho_inlet_sleeve = 2650.9) (degC), Point: 201Temperature (Cp_Al = 911.33, k_Al = 149.18, sigma_Al = 3.9523E7, rho_Al = 2566.7, Cp_inlet = 881.5, k_inlet = 152.88, sigma_inlet = 3.4586E7, rho_inlet = 2580.3, Cp_outlet = 847.1, k_outlet = 157.79, sigma_outlet = 3.6914E7, rho_outlet = 2547.7, Cp_outlet_sleeve = 832.43, k_outlet_sleeve = 161.02, sigma_outlet_sleeve = 3.5802E7, rho_outlet_sleeve = 2511.3, Cp_inlet_sleeve = 926.17, k_inlet_sleeve = 153.53, sigma_inlet_sleeve = 4.1458E7, rho_inlet_sleeve = 2650.9) (degC), Point: 210Temperature (Cp_Al = 911.33, k_Al = 149.18, sigma_Al = 3.9523E7, rho_Al = 2566.7, Cp_inlet = 881.5, k_inlet = 152.88, sigma_inlet = 3.4586E7, rho_inlet = 2580.3, Cp_outlet = 847.1, k_outlet = 157.79, sigma_outlet = 3.6914E7, rho_outlet = 2547.7, Cp_outlet_sleeve = 832.43, k_outlet_sleeve = 161.02, sigma_outlet_sleeve = 3.5802E7, rho_outlet_sleeve = 2511.3, Cp_inlet_sleeve = 926.17, k_inlet_sleeve = 153.53, sigma_inlet_sleeve = 4.1458E7, rho_inlet_sleeve = 2650.9) (degC), Point: 213Temperature (Cp_Al = 911.33, k_Al = 149.18, sigma_Al = 3.9523E7, rho_Al = 2566.7, Cp_inlet = 881.5, k_inlet = 152.88, sigma_inlet = 3.4586E7, rho_inlet = 2580.3, Cp_outlet = 847.1, k_outlet = 157.79, sigma_outlet = 3.6914E7, rho_outlet = 2547.7, Cp_outlet_sleeve = 832.43, k_outlet_sleeve = 161.02, sigma_outlet_sleeve = 3.5802E7, rho_outlet_sleeve = 2511.3, Cp_inlet_sleeve = 926.17, k_inlet_sleeve = 153.53, sigma_inlet_sleeve = 4.1458E7, rho_inlet_sleeve = 2650.9) (degC), Point: 215Temperature (Cp_Al = 911.33, k_Al = 149.18, sigma_Al = 3.9523E7, rho_Al = 2566.7, Cp_inlet = 881.5, k_inlet = 152.88, sigma_inlet = 3.4586E7, rho_inlet = 2580.3, Cp_outlet = 847.1, k_outlet = 157.79, sigma_outlet = 3.6914E7, rho_outlet = 2547.7, Cp_outlet_sleeve = 832.43, k_outlet_sleeve = 161.02, sigma_outlet_sleeve = 3.5802E7, rho_outlet_sleeve = 2511.3, Cp_inlet_sleeve = 926.17, k_inlet_sleeve = 153.53, sigma_inlet_sleeve = 4.1458E7, rho_inlet_sleeve = 2650.9) (degC), Point: 229Temperature (Cp_Al = 911.33, k_Al = 149.18, sigma_Al = 3.9523E7, rho_Al = 2566.7, Cp_inlet = 881.5, k_inlet = 152.88, sigma_inlet = 3.4586E7, rho_inlet = 2580.3, Cp_outlet = 847.1, k_outlet = 157.79, sigma_outlet = 3.6914E7, rho_outlet = 2547.7, Cp_outlet_sleeve = 832.43, k_outlet_sleeve = 161.02, sigma_outlet_sleeve = 3.5802E7, rho_outlet_sleeve = 2511.3, Cp_inlet_sleeve = 926.17, k_inlet_sleeve = 153.53, sigma_inlet_sleeve = 4.1458E7, rho_inlet_sleeve = 2650.9) (degC), Point: 232Temperature (Cp_Al = 911.33, k_Al = 149.18, sigma_Al = 3.9523E7, rho_Al = 2566.7, Cp_inlet = 881.5, k_inlet = 152.88, sigma_inlet = 3.4586E7, rho_inlet = 2580.3, Cp_outlet = 847.1, k_outlet = 157.79, sigma_outlet = 3.6914E7, rho_outlet = 2547.7, Cp_outlet_sleeve = 832.43, k_outlet_sleeve = 161.02, sigma_outlet_sleeve = 3.5802E7, rho_outlet_sleeve = 2511.3, Cp_inlet_sleeve = 926.17, k_inlet_sleeve = 153.53, sigma_inlet_sleeve = 4.1458E7, rho_inlet_sleeve = 2650.9) (degC), Point: 239Temperature (Cp_Al = 911.33, k_Al = 149.18, sigma_Al = 3.9523E7, rho_Al = 2566.7, Cp_inlet = 881.5, k_inlet = 152.88, sigma_inlet = 3.4586E7, rho_inlet = 2580.3, Cp_outlet = 847.1, k_outlet = 157.79, sigma_outlet = 3.6914E7, rho_outlet = 2547.7, Cp_outlet_sleeve = 832.43, k_outlet_sleeve = 161.02, sigma_outlet_sleeve = 3.5802E7, rho_outlet_sleeve = 2511.3, Cp_inlet_sleeve = 926.17, k_inlet_sleeve = 153.53, sigma_inlet_sleeve = 4.1458E7, rho_inlet_sleeve = 2650.9) (degC), Point: 252Temperature (Cp_Al = 911.33, k_Al = 149.18, sigma_Al = 3.9523E7, rho_Al = 2566.7, Cp_inlet = 881.5, k_inlet = 152.88, sigma_inlet = 3.4586E7, rho_inlet = 2580.3, Cp_outlet = 847.1, k_outlet = 157.79, sigma_outlet = 3.6914E7, rho_outlet = 2547.7, Cp_outlet_sleeve = 832.43, k_outlet_sleeve = 161.02, sigma_outlet_sleeve = 3.5802E7, rho_outlet_sleeve = 2511.3, Cp_inlet_sleeve = 926.17, k_inlet_sleeve = 153.53, sigma_inlet_sleeve = 4.1458E7, rho_inlet_sleeve = 2650.9) (degC), Point: 261Temperature (Cp_Al = 911.33, k_Al = 149.18, sigma_Al = 3.9523E7, rho_Al = 2566.7, Cp_inlet = 881.5, k_inlet = 152.88, sigma_inlet = 3.4586E7, rho_inlet = 2580.3, Cp_outlet = 847.1, k_outlet = 157.79, sigma_outlet = 3.6914E7, rho_outlet = 2547.7, Cp_outlet_sleeve = 832.43, k_outlet_sleeve = 161.02, sigma_outlet_sleeve = 3.5802E7, rho_outlet_sleeve = 2511.3, Cp_inlet_sleeve = 926.17, k_inlet_sleeve = 153.53, sigma_inlet_sleeve = 4.1458E7, rho_inlet_sleeve = 2650.9) (degC), Point: 270Temperature (Cp_Al = 911.33, k_Al = 149.18, sigma_Al = 3.9523E7, rho_Al = 2566.7, Cp_inlet = 881.5, k_inlet = 152.88, sigma_inlet = 3.4586E7, rho_inlet = 2580.3, Cp_outlet = 847.1, k_outlet = 157.79, sigma_outlet = 3.6914E7, rho_outlet = 2547.7, Cp_outlet_sleeve = 832.43, k_outlet_sleeve = 161.02, sigma_outlet_sleeve = 3.5802E7, rho_outlet_sleeve = 2511.3, Cp_inlet_sleeve = 926.17, k_inlet_sleeve = 153.53, sigma_inlet_sleeve = 4.1458E7, rho_inlet_sleeve = 2650.9) (degC), Point: 273Temperature (Cp_Al = 911.33, k_Al = 149.18, sigma_Al = 3.9523E7, rho_Al = 2566.7, Cp_inlet = 881.5, k_inlet = 152.88, sigma_inlet = 3.4586E7, rho_inlet = 2580.3, Cp_outlet = 847.1, k_outlet = 157.79, sigma_outlet = 3.6914E7, rho_outlet = 2547.7, Cp_outlet_sleeve = 832.43, k_outlet_sleeve = 161.02, sigma_outlet_sleeve = 3.5802E7, rho_outlet_sleeve = 2511.3, Cp_inlet_sleeve = 926.17, k_inlet_sleeve = 153.53, sigma_inlet_sleeve = 4.1458E7, rho_inlet_sleeve = 2650.9) (degC), Point: 275
0                        21.654784945634447       21.01298977025249        21.131953477204945       21.008760921415387       21.013317667228762       21.10815100244514        21.008664016954356       21.02557571289026        21.0013858769517         21.02458127044912        21.001218337098976       21.000636357255246       21.009500417903666       21.000107413166234       21.00757935733469        21.02151455790272        21.000055278097932       21.011562124045042       21.00073919588374        21.000298774441205       21.001772819451162       21.000174455383274       21.000268717519248       21.00865260061545        21.118639753271054       21.012782248872043       21.539801604070703       21.008652235489592       21.144840219423486       21.016282889940726       21.72838358479811
3                        311.84113095444343       277.2795081219681        286.7957947940296        282.1396382342209        260.76456730220343       273.4760137959903        271.79999024772974       259.9631483118152        255.07981000128007       266.0550963064941        268.09682078009575       259.68940028058023       257.02848252538627       244.29505935448822       249.22025048107037       244.7921480741917        240.19067676785596       249.30138092839798       250.81212271260722       244.54322084916498       243.58633982171955       236.88579018147703       239.7004874952978        273.876285372001         275.98861854038694       262.39277621479744       296.6758763094192        283.7035220975389        288.6240834627314        276.53506539305715       316.0551836896004
6                        435.87852585349833       399.79610045140794       413.0966877945824        409.16739621353213       385.35925173703697       402.9754220432759        402.33112903975245       386.42007783778524       379.51649231362455       395.4495634776132        398.52825431320605       390.10690417608964       386.41324063030754       368.71536486840466       375.65130966107563       367.5709811102872        361.3765166209523        374.46002075612216       376.734973638096         370.4402755446316        368.7806568835257        358.29098522583445       362.6403723068988        404.2041379361973        405.25872169006414       386.65324223683217       422.9740603231211        408.39305746287744       412.56849131976855       396.45184068329104       437.60515660729686
9                        508.43800034032745       471.44941992312897       487.45811356348236       484.26788554035693       456.7874895368142        477.71593678738043       477.97703883017846       458.91696702721254       450.85114986461576       470.1328846196051        474.1204234737129        465.6897687500789        461.08821080460166       440.03690671042955       448.12595252617723       439.2871340404997        432.1403102498101        448.0603673740004        451.104035865278         444.92335948917          442.5256251059187        429.29252322871037       434.5636743902761        479.74249059702595       479.8684299738594        457.8797419107185        495.37230029139334       482.1185987771762        485.5249405305151        466.50712077033484       508.6452256771845
12                       558.1509015982423        520.5505778032319        538.5511700760179        535.9705511868673        504.6856989091857        527.9250888676169        528.8838909567415        507.50173755860726       498.68947098379647       520.3066751549176        524.9942709340527        516.5601892519604        511.2585360039518        487.8675224471476        496.6963513799965        488.50341974578066       480.71425155997065       498.71382886403546       502.3889534466414        496.287739706189         493.27081047940305       478.00131016448165       483.89825597762433       530.5871247747469        529.9972813776881        505.64939095988814       543.8942168154225        533.0500385977938        535.8142754008037        514.6523511187515        557.4581121443574
15                       595.8078019359882        557.758711817703         577.303259196707         575.2257836499278        540.2820092789572        565.2076464770985        566.7043397167655        543.5738985095259        534.2451994439466        557.5658770503162        562.7930537903825        554.3594747151487        548.5179227201832        523.4201463314338        532.7603717705259        525.8454891853036        517.5863732947207        537.1924258088219        541.3873410202175        535.3669295053818        531.833574342357         514.9758125607176        521.3335009783567        568.3703567763847        567.2286410717654        541.1606266147784        579.9255570295451        571.8631704000255        574.0934324621628        551.2659535080672        594.5617598805252
18                       625.9309530928435        587.5381055617291        608.3221284912646        606.6683712298778        568.2386726438149        594.4345257780188        596.3554473650072        571.8728865308018        562.1740018050349        586.777228600834         592.4298559729618        583.9986704538409        577.7312223786953        551.3483322612315        561.0547943211656        555.7634959242389        547.1455569331265        568.0370866099386        572.6687734750855        566.7292814794276        562.7580066848366        544.6200024658244        551.331326218197         597.9997043220499        596.4227561343291        569.0603370630314        608.1977143491836        603.058825048856         604.8373613013237        580.6724508228793        624.3430101442052
21                       651.6690001275531        612.9972013053402        634.8176116771889        633.5281847451831        591.8163214728394        619.0213892647814        621.2897907203527        595.7141735659267        585.7316753457542        611.353315416581         617.3543299810722        608.9263320384445        602.3100310910875        574.906701769657         584.8935248871437        581.3587358036334        572.4506118319105        594.4138760155979        599.4204316504397        593.55847565179          589.2094590513614        569.999561733288         576.9977609855275        622.9211643872093        620.9878096706038        592.5982466309583        632.0206161658767        629.7763669699774        631.1660003606064        605.8849973645354        649.8584121667567
24                       674.6622406730141        635.7556065275108        658.464199828442         657.4918522434602        612.7424363319033        640.7852646298716        643.3479529721576        616.8548108570999        606.6429603857639        633.1094537207147        639.4054397390775        630.9808826700388        624.069165744611         595.8193441213351        606.0327396624543        604.2472209137399        595.0955899822883        617.9750098694608        623.3072983572301        617.516933749676         612.8388511114798        592.7106698117269        599.9499702728936        644.9717780096752        642.7366960958861        613.4956650229027        653.1481911190972        653.6557102462303        654.7071122349871        628.4726278861431        672.699676322124
27                       695.7299716396942        656.6225146846576        680.0993880530132        679.403814774562         631.9016064478545        660.6580267583266        663.4749285931379        636.1942739497767        625.7909075299411        652.9765710213451        659.5272897591306        651.106157786824         643.9392975608025        614.9689499013258        625.3714394390463        625.2357591364474        615.8764842883775        639.5466666675949        645.1628927334968        639.437246894591         634.4719307622196        613.5502349960619        620.9952858478105        665.094623751818         662.5990222498095        632.6337212106966        672.4781787997841        675.5180814026261        676.2746663677655        649.2181927642588        693.6610133863431
