% Model:              brazing.mph
% Version:            COMSOL 5.3.0.223
% Date:               Oct 23 2018, 23:49
% Table:              Table 3 - 
% Time (s)               Temperature (Cp_Al = 968.8, k_Al = 166.3, sigma_Al = 3.6616E7, rho_Al = 2606.1, Cp_inlet = 906.2, k_inlet = 168.7, sigma_inlet = 3.9445E7, rho_inlet = 2752.7, Cp_outlet = 820.2, k_outlet = 168.5, sigma_outlet = 4.0143E7, rho_outlet = 2871.3, Cp_outlet_sleeve = 954.3, k_outlet_sleeve = 165.3, sigma_outlet_sleeve = 3.8236E7, rho_outlet_sleeve = 2664.3, Cp_inlet_sleeve = 911, k_inlet_sleeve = 147.4, sigma_inlet_sleeve = 3.978E7, rho_inlet_sleeve = 2779.7) (degC), Point: 55Temperature (Cp_Al = 968.8, k_Al = 166.3, sigma_Al = 3.6616E7, rho_Al = 2606.1, Cp_inlet = 906.2, k_inlet = 168.7, sigma_inlet = 3.9445E7, rho_inlet = 2752.7, Cp_outlet = 820.2, k_outlet = 168.5, sigma_outlet = 4.0143E7, rho_outlet = 2871.3, Cp_outlet_sleeve = 954.3, k_outlet_sleeve = 165.3, sigma_outlet_sleeve = 3.8236E7, rho_outlet_sleeve = 2664.3, Cp_inlet_sleeve = 911, k_inlet_sleeve = 147.4, sigma_inlet_sleeve = 3.978E7, rho_inlet_sleeve = 2779.7) (degC), Point: 56Temperature (Cp_Al = 968.8, k_Al = 166.3, sigma_Al = 3.6616E7, rho_Al = 2606.1, Cp_inlet = 906.2, k_inlet = 168.7, sigma_inlet = 3.9445E7, rho_inlet = 2752.7, Cp_outlet = 820.2, k_outlet = 168.5, sigma_outlet = 4.0143E7, rho_outlet = 2871.3, Cp_outlet_sleeve = 954.3, k_outlet_sleeve = 165.3, sigma_outlet_sleeve = 3.8236E7, rho_outlet_sleeve = 2664.3, Cp_inlet_sleeve = 911, k_inlet_sleeve = 147.4, sigma_inlet_sleeve = 3.978E7, rho_inlet_sleeve = 2779.7) (degC), Point: 60Temperature (Cp_Al = 968.8, k_Al = 166.3, sigma_Al = 3.6616E7, rho_Al = 2606.1, Cp_inlet = 906.2, k_inlet = 168.7, sigma_inlet = 3.9445E7, rho_inlet = 2752.7, Cp_outlet = 820.2, k_outlet = 168.5, sigma_outlet = 4.0143E7, rho_outlet = 2871.3, Cp_outlet_sleeve = 954.3, k_outlet_sleeve = 165.3, sigma_outlet_sleeve = 3.8236E7, rho_outlet_sleeve = 2664.3, Cp_inlet_sleeve = 911, k_inlet_sleeve = 147.4, sigma_inlet_sleeve = 3.978E7, rho_inlet_sleeve = 2779.7) (degC), Point: 69Temperature (Cp_Al = 968.8, k_Al = 166.3, sigma_Al = 3.6616E7, rho_Al = 2606.1, Cp_inlet = 906.2, k_inlet = 168.7, sigma_inlet = 3.9445E7, rho_inlet = 2752.7, Cp_outlet = 820.2, k_outlet = 168.5, sigma_outlet = 4.0143E7, rho_outlet = 2871.3, Cp_outlet_sleeve = 954.3, k_outlet_sleeve = 165.3, sigma_outlet_sleeve = 3.8236E7, rho_outlet_sleeve = 2664.3, Cp_inlet_sleeve = 911, k_inlet_sleeve = 147.4, sigma_inlet_sleeve = 3.978E7, rho_inlet_sleeve = 2779.7) (degC), Point: 90Temperature (Cp_Al = 968.8, k_Al = 166.3, sigma_Al = 3.6616E7, rho_Al = 2606.1, Cp_inlet = 906.2, k_inlet = 168.7, sigma_inlet = 3.9445E7, rho_inlet = 2752.7, Cp_outlet = 820.2, k_outlet = 168.5, sigma_outlet = 4.0143E7, rho_outlet = 2871.3, Cp_outlet_sleeve = 954.3, k_outlet_sleeve = 165.3, sigma_outlet_sleeve = 3.8236E7, rho_outlet_sleeve = 2664.3, Cp_inlet_sleeve = 911, k_inlet_sleeve = 147.4, sigma_inlet_sleeve = 3.978E7, rho_inlet_sleeve = 2779.7) (degC), Point: 98Temperature (Cp_Al = 968.8, k_Al = 166.3, sigma_Al = 3.6616E7, rho_Al = 2606.1, Cp_inlet = 906.2, k_inlet = 168.7, sigma_inlet = 3.9445E7, rho_inlet = 2752.7, Cp_outlet = 820.2, k_outlet = 168.5, sigma_outlet = 4.0143E7, rho_outlet = 2871.3, Cp_outlet_sleeve = 954.3, k_outlet_sleeve = 165.3, sigma_outlet_sleeve = 3.8236E7, rho_outlet_sleeve = 2664.3, Cp_inlet_sleeve = 911, k_inlet_sleeve = 147.4, sigma_inlet_sleeve = 3.978E7, rho_inlet_sleeve = 2779.7) (degC), Point: 102Temperature (Cp_Al = 968.8, k_Al = 166.3, sigma_Al = 3.6616E7, rho_Al = 2606.1, Cp_inlet = 906.2, k_inlet = 168.7, sigma_inlet = 3.9445E7, rho_inlet = 2752.7, Cp_outlet = 820.2, k_outlet = 168.5, sigma_outlet = 4.0143E7, rho_outlet = 2871.3, Cp_outlet_sleeve = 954.3, k_outlet_sleeve = 165.3, sigma_outlet_sleeve = 3.8236E7, rho_outlet_sleeve = 2664.3, Cp_inlet_sleeve = 911, k_inlet_sleeve = 147.4, sigma_inlet_sleeve = 3.978E7, rho_inlet_sleeve = 2779.7) (degC), Point: 127Temperature (Cp_Al = 968.8, k_Al = 166.3, sigma_Al = 3.6616E7, rho_Al = 2606.1, Cp_inlet = 906.2, k_inlet = 168.7, sigma_inlet = 3.9445E7, rho_inlet = 2752.7, Cp_outlet = 820.2, k_outlet = 168.5, sigma_outlet = 4.0143E7, rho_outlet = 2871.3, Cp_outlet_sleeve = 954.3, k_outlet_sleeve = 165.3, sigma_outlet_sleeve = 3.8236E7, rho_outlet_sleeve = 2664.3, Cp_inlet_sleeve = 911, k_inlet_sleeve = 147.4, sigma_inlet_sleeve = 3.978E7, rho_inlet_sleeve = 2779.7) (degC), Point: 128Temperature (Cp_Al = 968.8, k_Al = 166.3, sigma_Al = 3.6616E7, rho_Al = 2606.1, Cp_inlet = 906.2, k_inlet = 168.7, sigma_inlet = 3.9445E7, rho_inlet = 2752.7, Cp_outlet = 820.2, k_outlet = 168.5, sigma_outlet = 4.0143E7, rho_outlet = 2871.3, Cp_outlet_sleeve = 954.3, k_outlet_sleeve = 165.3, sigma_outlet_sleeve = 3.8236E7, rho_outlet_sleeve = 2664.3, Cp_inlet_sleeve = 911, k_inlet_sleeve = 147.4, sigma_inlet_sleeve = 3.978E7, rho_inlet_sleeve = 2779.7) (degC), Point: 134Temperature (Cp_Al = 968.8, k_Al = 166.3, sigma_Al = 3.6616E7, rho_Al = 2606.1, Cp_inlet = 906.2, k_inlet = 168.7, sigma_inlet = 3.9445E7, rho_inlet = 2752.7, Cp_outlet = 820.2, k_outlet = 168.5, sigma_outlet = 4.0143E7, rho_outlet = 2871.3, Cp_outlet_sleeve = 954.3, k_outlet_sleeve = 165.3, sigma_outlet_sleeve = 3.8236E7, rho_outlet_sleeve = 2664.3, Cp_inlet_sleeve = 911, k_inlet_sleeve = 147.4, sigma_inlet_sleeve = 3.978E7, rho_inlet_sleeve = 2779.7) (degC), Point: 138Temperature (Cp_Al = 968.8, k_Al = 166.3, sigma_Al = 3.6616E7, rho_Al = 2606.1, Cp_inlet = 906.2, k_inlet = 168.7, sigma_inlet = 3.9445E7, rho_inlet = 2752.7, Cp_outlet = 820.2, k_outlet = 168.5, sigma_outlet = 4.0143E7, rho_outlet = 2871.3, Cp_outlet_sleeve = 954.3, k_outlet_sleeve = 165.3, sigma_outlet_sleeve = 3.8236E7, rho_outlet_sleeve = 2664.3, Cp_inlet_sleeve = 911, k_inlet_sleeve = 147.4, sigma_inlet_sleeve = 3.978E7, rho_inlet_sleeve = 2779.7) (degC), Point: 151Temperature (Cp_Al = 968.8, k_Al = 166.3, sigma_Al = 3.6616E7, rho_Al = 2606.1, Cp_inlet = 906.2, k_inlet = 168.7, sigma_inlet = 3.9445E7, rho_inlet = 2752.7, Cp_outlet = 820.2, k_outlet = 168.5, sigma_outlet = 4.0143E7, rho_outlet = 2871.3, Cp_outlet_sleeve = 954.3, k_outlet_sleeve = 165.3, sigma_outlet_sleeve = 3.8236E7, rho_outlet_sleeve = 2664.3, Cp_inlet_sleeve = 911, k_inlet_sleeve = 147.4, sigma_inlet_sleeve = 3.978E7, rho_inlet_sleeve = 2779.7) (degC), Point: 154Temperature (Cp_Al = 968.8, k_Al = 166.3, sigma_Al = 3.6616E7, rho_Al = 2606.1, Cp_inlet = 906.2, k_inlet = 168.7, sigma_inlet = 3.9445E7, rho_inlet = 2752.7, Cp_outlet = 820.2, k_outlet = 168.5, sigma_outlet = 4.0143E7, rho_outlet = 2871.3, Cp_outlet_sleeve = 954.3, k_outlet_sleeve = 165.3, sigma_outlet_sleeve = 3.8236E7, rho_outlet_sleeve = 2664.3, Cp_inlet_sleeve = 911, k_inlet_sleeve = 147.4, sigma_inlet_sleeve = 3.978E7, rho_inlet_sleeve = 2779.7) (degC), Point: 159Temperature (Cp_Al = 968.8, k_Al = 166.3, sigma_Al = 3.6616E7, rho_Al = 2606.1, Cp_inlet = 906.2, k_inlet = 168.7, sigma_inlet = 3.9445E7, rho_inlet = 2752.7, Cp_outlet = 820.2, k_outlet = 168.5, sigma_outlet = 4.0143E7, rho_outlet = 2871.3, Cp_outlet_sleeve = 954.3, k_outlet_sleeve = 165.3, sigma_outlet_sleeve = 3.8236E7, rho_outlet_sleeve = 2664.3, Cp_inlet_sleeve = 911, k_inlet_sleeve = 147.4, sigma_inlet_sleeve = 3.978E7, rho_inlet_sleeve = 2779.7) (degC), Point: 163Temperature (Cp_Al = 968.8, k_Al = 166.3, sigma_Al = 3.6616E7, rho_Al = 2606.1, Cp_inlet = 906.2, k_inlet = 168.7, sigma_inlet = 3.9445E7, rho_inlet = 2752.7, Cp_outlet = 820.2, k_outlet = 168.5, sigma_outlet = 4.0143E7, rho_outlet = 2871.3, Cp_outlet_sleeve = 954.3, k_outlet_sleeve = 165.3, sigma_outlet_sleeve = 3.8236E7, rho_outlet_sleeve = 2664.3, Cp_inlet_sleeve = 911, k_inlet_sleeve = 147.4, sigma_inlet_sleeve = 3.978E7, rho_inlet_sleeve = 2779.7) (degC), Point: 167Temperature (Cp_Al = 968.8, k_Al = 166.3, sigma_Al = 3.6616E7, rho_Al = 2606.1, Cp_inlet = 906.2, k_inlet = 168.7, sigma_inlet = 3.9445E7, rho_inlet = 2752.7, Cp_outlet = 820.2, k_outlet = 168.5, sigma_outlet = 4.0143E7, rho_outlet = 2871.3, Cp_outlet_sleeve = 954.3, k_outlet_sleeve = 165.3, sigma_outlet_sleeve = 3.8236E7, rho_outlet_sleeve = 2664.3, Cp_inlet_sleeve = 911, k_inlet_sleeve = 147.4, sigma_inlet_sleeve = 3.978E7, rho_inlet_sleeve = 2779.7) (degC), Point: 168Temperature (Cp_Al = 968.8, k_Al = 166.3, sigma_Al = 3.6616E7, rho_Al = 2606.1, Cp_inlet = 906.2, k_inlet = 168.7, sigma_inlet = 3.9445E7, rho_inlet = 2752.7, Cp_outlet = 820.2, k_outlet = 168.5, sigma_outlet = 4.0143E7, rho_outlet = 2871.3, Cp_outlet_sleeve = 954.3, k_outlet_sleeve = 165.3, sigma_outlet_sleeve = 3.8236E7, rho_outlet_sleeve = 2664.3, Cp_inlet_sleeve = 911, k_inlet_sleeve = 147.4, sigma_inlet_sleeve = 3.978E7, rho_inlet_sleeve = 2779.7) (degC), Point: 172Temperature (Cp_Al = 968.8, k_Al = 166.3, sigma_Al = 3.6616E7, rho_Al = 2606.1, Cp_inlet = 906.2, k_inlet = 168.7, sigma_inlet = 3.9445E7, rho_inlet = 2752.7, Cp_outlet = 820.2, k_outlet = 168.5, sigma_outlet = 4.0143E7, rho_outlet = 2871.3, Cp_outlet_sleeve = 954.3, k_outlet_sleeve = 165.3, sigma_outlet_sleeve = 3.8236E7, rho_outlet_sleeve = 2664.3, Cp_inlet_sleeve = 911, k_inlet_sleeve = 147.4, sigma_inlet_sleeve = 3.978E7, rho_inlet_sleeve = 2779.7) (degC), Point: 181Temperature (Cp_Al = 968.8, k_Al = 166.3, sigma_Al = 3.6616E7, rho_Al = 2606.1, Cp_inlet = 906.2, k_inlet = 168.7, sigma_inlet = 3.9445E7, rho_inlet = 2752.7, Cp_outlet = 820.2, k_outlet = 168.5, sigma_outlet = 4.0143E7, rho_outlet = 2871.3, Cp_outlet_sleeve = 954.3, k_outlet_sleeve = 165.3, sigma_outlet_sleeve = 3.8236E7, rho_outlet_sleeve = 2664.3, Cp_inlet_sleeve = 911, k_inlet_sleeve = 147.4, sigma_inlet_sleeve = 3.978E7, rho_inlet_sleeve = 2779.7) (degC), Point: 201Temperature (Cp_Al = 968.8, k_Al = 166.3, sigma_Al = 3.6616E7, rho_Al = 2606.1, Cp_inlet = 906.2, k_inlet = 168.7, sigma_inlet = 3.9445E7, rho_inlet = 2752.7, Cp_outlet = 820.2, k_outlet = 168.5, sigma_outlet = 4.0143E7, rho_outlet = 2871.3, Cp_outlet_sleeve = 954.3, k_outlet_sleeve = 165.3, sigma_outlet_sleeve = 3.8236E7, rho_outlet_sleeve = 2664.3, Cp_inlet_sleeve = 911, k_inlet_sleeve = 147.4, sigma_inlet_sleeve = 3.978E7, rho_inlet_sleeve = 2779.7) (degC), Point: 210Temperature (Cp_Al = 968.8, k_Al = 166.3, sigma_Al = 3.6616E7, rho_Al = 2606.1, Cp_inlet = 906.2, k_inlet = 168.7, sigma_inlet = 3.9445E7, rho_inlet = 2752.7, Cp_outlet = 820.2, k_outlet = 168.5, sigma_outlet = 4.0143E7, rho_outlet = 2871.3, Cp_outlet_sleeve = 954.3, k_outlet_sleeve = 165.3, sigma_outlet_sleeve = 3.8236E7, rho_outlet_sleeve = 2664.3, Cp_inlet_sleeve = 911, k_inlet_sleeve = 147.4, sigma_inlet_sleeve = 3.978E7, rho_inlet_sleeve = 2779.7) (degC), Point: 213Temperature (Cp_Al = 968.8, k_Al = 166.3, sigma_Al = 3.6616E7, rho_Al = 2606.1, Cp_inlet = 906.2, k_inlet = 168.7, sigma_inlet = 3.9445E7, rho_inlet = 2752.7, Cp_outlet = 820.2, k_outlet = 168.5, sigma_outlet = 4.0143E7, rho_outlet = 2871.3, Cp_outlet_sleeve = 954.3, k_outlet_sleeve = 165.3, sigma_outlet_sleeve = 3.8236E7, rho_outlet_sleeve = 2664.3, Cp_inlet_sleeve = 911, k_inlet_sleeve = 147.4, sigma_inlet_sleeve = 3.978E7, rho_inlet_sleeve = 2779.7) (degC), Point: 215Temperature (Cp_Al = 968.8, k_Al = 166.3, sigma_Al = 3.6616E7, rho_Al = 2606.1, Cp_inlet = 906.2, k_inlet = 168.7, sigma_inlet = 3.9445E7, rho_inlet = 2752.7, Cp_outlet = 820.2, k_outlet = 168.5, sigma_outlet = 4.0143E7, rho_outlet = 2871.3, Cp_outlet_sleeve = 954.3, k_outlet_sleeve = 165.3, sigma_outlet_sleeve = 3.8236E7, rho_outlet_sleeve = 2664.3, Cp_inlet_sleeve = 911, k_inlet_sleeve = 147.4, sigma_inlet_sleeve = 3.978E7, rho_inlet_sleeve = 2779.7) (degC), Point: 229Temperature (Cp_Al = 968.8, k_Al = 166.3, sigma_Al = 3.6616E7, rho_Al = 2606.1, Cp_inlet = 906.2, k_inlet = 168.7, sigma_inlet = 3.9445E7, rho_inlet = 2752.7, Cp_outlet = 820.2, k_outlet = 168.5, sigma_outlet = 4.0143E7, rho_outlet = 2871.3, Cp_outlet_sleeve = 954.3, k_outlet_sleeve = 165.3, sigma_outlet_sleeve = 3.8236E7, rho_outlet_sleeve = 2664.3, Cp_inlet_sleeve = 911, k_inlet_sleeve = 147.4, sigma_inlet_sleeve = 3.978E7, rho_inlet_sleeve = 2779.7) (degC), Point: 232Temperature (Cp_Al = 968.8, k_Al = 166.3, sigma_Al = 3.6616E7, rho_Al = 2606.1, Cp_inlet = 906.2, k_inlet = 168.7, sigma_inlet = 3.9445E7, rho_inlet = 2752.7, Cp_outlet = 820.2, k_outlet = 168.5, sigma_outlet = 4.0143E7, rho_outlet = 2871.3, Cp_outlet_sleeve = 954.3, k_outlet_sleeve = 165.3, sigma_outlet_sleeve = 3.8236E7, rho_outlet_sleeve = 2664.3, Cp_inlet_sleeve = 911, k_inlet_sleeve = 147.4, sigma_inlet_sleeve = 3.978E7, rho_inlet_sleeve = 2779.7) (degC), Point: 239Temperature (Cp_Al = 968.8, k_Al = 166.3, sigma_Al = 3.6616E7, rho_Al = 2606.1, Cp_inlet = 906.2, k_inlet = 168.7, sigma_inlet = 3.9445E7, rho_inlet = 2752.7, Cp_outlet = 820.2, k_outlet = 168.5, sigma_outlet = 4.0143E7, rho_outlet = 2871.3, Cp_outlet_sleeve = 954.3, k_outlet_sleeve = 165.3, sigma_outlet_sleeve = 3.8236E7, rho_outlet_sleeve = 2664.3, Cp_inlet_sleeve = 911, k_inlet_sleeve = 147.4, sigma_inlet_sleeve = 3.978E7, rho_inlet_sleeve = 2779.7) (degC), Point: 252Temperature (Cp_Al = 968.8, k_Al = 166.3, sigma_Al = 3.6616E7, rho_Al = 2606.1, Cp_inlet = 906.2, k_inlet = 168.7, sigma_inlet = 3.9445E7, rho_inlet = 2752.7, Cp_outlet = 820.2, k_outlet = 168.5, sigma_outlet = 4.0143E7, rho_outlet = 2871.3, Cp_outlet_sleeve = 954.3, k_outlet_sleeve = 165.3, sigma_outlet_sleeve = 3.8236E7, rho_outlet_sleeve = 2664.3, Cp_inlet_sleeve = 911, k_inlet_sleeve = 147.4, sigma_inlet_sleeve = 3.978E7, rho_inlet_sleeve = 2779.7) (degC), Point: 261Temperature (Cp_Al = 968.8, k_Al = 166.3, sigma_Al = 3.6616E7, rho_Al = 2606.1, Cp_inlet = 906.2, k_inlet = 168.7, sigma_inlet = 3.9445E7, rho_inlet = 2752.7, Cp_outlet = 820.2, k_outlet = 168.5, sigma_outlet = 4.0143E7, rho_outlet = 2871.3, Cp_outlet_sleeve = 954.3, k_outlet_sleeve = 165.3, sigma_outlet_sleeve = 3.8236E7, rho_outlet_sleeve = 2664.3, Cp_inlet_sleeve = 911, k_inlet_sleeve = 147.4, sigma_inlet_sleeve = 3.978E7, rho_inlet_sleeve = 2779.7) (degC), Point: 270Temperature (Cp_Al = 968.8, k_Al = 166.3, sigma_Al = 3.6616E7, rho_Al = 2606.1, Cp_inlet = 906.2, k_inlet = 168.7, sigma_inlet = 3.9445E7, rho_inlet = 2752.7, Cp_outlet = 820.2, k_outlet = 168.5, sigma_outlet = 4.0143E7, rho_outlet = 2871.3, Cp_outlet_sleeve = 954.3, k_outlet_sleeve = 165.3, sigma_outlet_sleeve = 3.8236E7, rho_outlet_sleeve = 2664.3, Cp_inlet_sleeve = 911, k_inlet_sleeve = 147.4, sigma_inlet_sleeve = 3.978E7, rho_inlet_sleeve = 2779.7) (degC), Point: 273Temperature (Cp_Al = 968.8, k_Al = 166.3, sigma_Al = 3.6616E7, rho_Al = 2606.1, Cp_inlet = 906.2, k_inlet = 168.7, sigma_inlet = 3.9445E7, rho_inlet = 2752.7, Cp_outlet = 820.2, k_outlet = 168.5, sigma_outlet = 4.0143E7, rho_outlet = 2871.3, Cp_outlet_sleeve = 954.3, k_outlet_sleeve = 165.3, sigma_outlet_sleeve = 3.8236E7, rho_outlet_sleeve = 2664.3, Cp_inlet_sleeve = 911, k_inlet_sleeve = 147.4, sigma_inlet_sleeve = 3.978E7, rho_inlet_sleeve = 2779.7) (degC), Point: 275
0                        21.5589499941687         21.01043362943352        21.130106587785633       21.008054043667414       21.013031365003485       21.107420879958227       21.00796614159202        21.024167415115244       21.001365715883367       21.024368913137437       21.00112984199376        21.000603566817347       21.009480071871508       21.000105869550566       21.00718834706379        21.018200215834668       21.00005096831825        21.01137228309466        21.00068427083562        21.000280251860772       21.001748701620613       21.000150285541963       21.00023179382282        21.007961931138595       21.1178554599544         21.01251811191645        21.515063120862294       21.007936474178905       21.142786337080167       21.013449092699375       21.621927218047233
3                        282.7155787800168        248.9037698282757        258.18500364840406       253.5145146537957        249.99712058359648       260.4356287122421        257.95617728905665       248.62896256809245       244.178131790831         253.20911841434736       254.51740538349088       246.59706236176464       244.60680511870487       233.62357493263994       238.14991194813592       218.19038031550832       213.8940740788682        222.75628698532563       224.2343012004074        218.38945086539508       217.3964138476706        210.76382048079319       213.3547581577228        259.9348157591411        262.8796164494796        251.63328126367003       286.4326368793587        255.21005011172838       260.16493113920603       248.5023579611351        287.100116753719
6                        398.77368645022864       363.5843880920032        376.0418941323377        371.93985257064094       371.01152444981824       386.0027894139416        384.4211515023858        371.47472084371555       365.05106249431435       378.68232974153875       380.89333059561          372.96039491735235       370.0718097875199        354.48296492914756       360.9734801272224        333.1961116323515        327.4592014287464        339.65976682002713       341.7372689581133        335.75306642345936       334.2137968183646        324.39975900174215       328.38158499253507       386.21703703517915       388.2424462613842        372.349979167421         409.13759458698087       371.52398837088106       375.89433538125616       360.83682665915546       400.91176114969596
9                        468.073901425337         432.03205348468987       446.92568333754707       443.47498487806774       440.2380074179838        458.4691281705866        457.75262726653534       441.78731629903314       434.19314249654747       451.0974340063002        454.17682685000057       446.23874026935437       442.4831833440953        423.61854790711766       431.26987904501766       401.7054072410641        395.07407214141665       409.8299650064308        412.58619573924534       406.7176948705487        404.52980700667933       392.25118127082135       397.09870732117304       459.4555142441111        460.59517362408405       441.3999963179365        479.3656339698018        441.7784503571023        445.4715400857202        427.80350548033186       468.8015901321734
12                       515.1585980382863        478.53679733747424       495.27378010994926       492.3845011968317        485.84099493922065       506.3479803908199        506.3098783985689        488.08687407976674       479.7435369570172        498.94590290043584       502.7058714901432        494.7655318546483        490.3294982472978        469.16348331989786       477.55678702732484       448.3248776491008        441.0854984743984        457.76702267585506       461.1052189767537        455.3143603946502        452.5574273397607        438.39766114591293       443.83682151175947       507.9605642498233        508.4053852932759        486.8914090684034        525.6105907122325        489.97093618899135       493.0734743653038        473.4237293808509        515.051958514263
15                       551.1965733144493        514.141330256538         532.3392848148073        529.9225811356239        520.1160024754231        542.3109037026179        542.8015453350979        522.854695195186         513.9822994571971        534.8884256037541        539.1787354372551        531.2395212695458        526.2729482913004        503.4004826296692        512.3173854982656        484.06237181992515       476.36984681313663       494.57162442690037       498.398140222183         492.6844498243837        489.44370411680666       473.7846417759512        479.6673118350543        544.4208330313368        544.3240092272797        521.0914467306185        560.3424336457111        527.0873168043883        529.6894689222128        508.46742849185057       550.5665311989204
18                       580.0713905604632        542.6810557495425        562.0680953055407        560.0545881999491        547.1366030689619        570.6179988793974        571.5292756933657        550.235041256657         540.977861024719         563.1819090792205        567.894023288363         559.9574546643959        554.5687143535915        530.3960884337753        539.6935078013952        512.7397798739738        504.69809117021566       524.1326987697884        528.3747818958391        522.7376973113629        519.0812995079293        502.1971654697377        508.4233532908496        573.1303965656397        572.6026659720607        548.0614545166379        587.6988671941818        556.9799976942007        559.1534270524371        536.6520569988556        579.1145278217267
21                       604.6003329643444        566.9381968115318        587.3249314766465        585.660720156076         569.842668049458         594.3514422478637        595.6090232414443        573.2194820148228        563.6660727730357        586.9060089646422        591.9652971359409        584.0319739996511        578.2956407668436        553.0852447870941        562.6754103234448        537.1324783740338        528.8085620711051        549.2763241913349        553.8776766075687        548.3137291726181        544.2959329161512        526.3801250984728        532.8849747750189        597.1998126140272        596.3173846987789        570.7323108887011        610.666881399401         582.4495339843033        584.2510056374153        560.6761456832686        603.4322525396132
24                       626.3668608367068        588.4765647982493        609.722053158322         608.3633213298684        589.8857538931871        615.2484865953966        616.8000011202397        593.4890469778311        583.6960600275225        607.7964764146735        613.1503531527466        605.2204342839083        599.189090501431         573.1166127652297        582.9434096545966        558.8007660314835        550.2407281059859        571.5935320106267        576.5085347700824        571.0121370645066        566.6778144064523        547.8757055132972        554.6141978245528        618.3852217259684        617.201837218679         590.7502144309884        630.924819531058         605.074089206098         606.550376825222         582.0560977039527        625.0575090576216
27                       646.2536556816644        608.168030722445         630.159389208661         629.0687685589475        608.1945288687535        634.2874867189057        636.0939180991759        611.9887890098927        601.9949927089934        626.8307535543211        632.4400452327046        624.5134602294097        618.2262997814477        591.4170965962775        601.4421491526664        578.6141166334847        569.8525240337889        591.9722677145087        597.1621500415094        591.7268645969383        587.1146563430871        567.5433033767274        574.4814723774027        637.6765177920594        636.2322321618348        609.0405503538941        649.4161088276608        625.7355736659689        626.9268033991052        601.6365212521328        644.8469137479157
