% Model:              brazing.mph
% Version:            COMSOL 5.3.0.223
% Date:               Oct 24 2018, 04:08
% Table:              Table 3 - 
% Time (s)               Temperature (Cp_Al = 844.05, k_Al = 131.61, sigma_Al = 4.1565E7, rho_Al = 2696.6, Cp_inlet = 966.95, k_inlet = 162.99, sigma_inlet = 3.0427E7, rho_inlet = 2117.3, Cp_outlet = 818.87, k_outlet = 135.37, sigma_outlet = 3.7462E7, rho_outlet = 2438.5, Cp_outlet_sleeve = 838.38, k_outlet_sleeve = 173.59, sigma_outlet_sleeve = 3.3389E7, rho_outlet_sleeve = 2305.7, Cp_inlet_sleeve = 882.79, k_inlet_sleeve = 150.57, sigma_inlet_sleeve = 4.5252E7, rho_inlet_sleeve = 2461.5) (degC), Point: 55Temperature (Cp_Al = 844.05, k_Al = 131.61, sigma_Al = 4.1565E7, rho_Al = 2696.6, Cp_inlet = 966.95, k_inlet = 162.99, sigma_inlet = 3.0427E7, rho_inlet = 2117.3, Cp_outlet = 818.87, k_outlet = 135.37, sigma_outlet = 3.7462E7, rho_outlet = 2438.5, Cp_outlet_sleeve = 838.38, k_outlet_sleeve = 173.59, sigma_outlet_sleeve = 3.3389E7, rho_outlet_sleeve = 2305.7, Cp_inlet_sleeve = 882.79, k_inlet_sleeve = 150.57, sigma_inlet_sleeve = 4.5252E7, rho_inlet_sleeve = 2461.5) (degC), Point: 56Temperature (Cp_Al = 844.05, k_Al = 131.61, sigma_Al = 4.1565E7, rho_Al = 2696.6, Cp_inlet = 966.95, k_inlet = 162.99, sigma_inlet = 3.0427E7, rho_inlet = 2117.3, Cp_outlet = 818.87, k_outlet = 135.37, sigma_outlet = 3.7462E7, rho_outlet = 2438.5, Cp_outlet_sleeve = 838.38, k_outlet_sleeve = 173.59, sigma_outlet_sleeve = 3.3389E7, rho_outlet_sleeve = 2305.7, Cp_inlet_sleeve = 882.79, k_inlet_sleeve = 150.57, sigma_inlet_sleeve = 4.5252E7, rho_inlet_sleeve = 2461.5) (degC), Point: 60Temperature (Cp_Al = 844.05, k_Al = 131.61, sigma_Al = 4.1565E7, rho_Al = 2696.6, Cp_inlet = 966.95, k_inlet = 162.99, sigma_inlet = 3.0427E7, rho_inlet = 2117.3, Cp_outlet = 818.87, k_outlet = 135.37, sigma_outlet = 3.7462E7, rho_outlet = 2438.5, Cp_outlet_sleeve = 838.38, k_outlet_sleeve = 173.59, sigma_outlet_sleeve = 3.3389E7, rho_outlet_sleeve = 2305.7, Cp_inlet_sleeve = 882.79, k_inlet_sleeve = 150.57, sigma_inlet_sleeve = 4.5252E7, rho_inlet_sleeve = 2461.5) (degC), Point: 69Temperature (Cp_Al = 844.05, k_Al = 131.61, sigma_Al = 4.1565E7, rho_Al = 2696.6, Cp_inlet = 966.95, k_inlet = 162.99, sigma_inlet = 3.0427E7, rho_inlet = 2117.3, Cp_outlet = 818.87, k_outlet = 135.37, sigma_outlet = 3.7462E7, rho_outlet = 2438.5, Cp_outlet_sleeve = 838.38, k_outlet_sleeve = 173.59, sigma_outlet_sleeve = 3.3389E7, rho_outlet_sleeve = 2305.7, Cp_inlet_sleeve = 882.79, k_inlet_sleeve = 150.57, sigma_inlet_sleeve = 4.5252E7, rho_inlet_sleeve = 2461.5) (degC), Point: 90Temperature (Cp_Al = 844.05, k_Al = 131.61, sigma_Al = 4.1565E7, rho_Al = 2696.6, Cp_inlet = 966.95, k_inlet = 162.99, sigma_inlet = 3.0427E7, rho_inlet = 2117.3, Cp_outlet = 818.87, k_outlet = 135.37, sigma_outlet = 3.7462E7, rho_outlet = 2438.5, Cp_outlet_sleeve = 838.38, k_outlet_sleeve = 173.59, sigma_outlet_sleeve = 3.3389E7, rho_outlet_sleeve = 2305.7, Cp_inlet_sleeve = 882.79, k_inlet_sleeve = 150.57, sigma_inlet_sleeve = 4.5252E7, rho_inlet_sleeve = 2461.5) (degC), Point: 98Temperature (Cp_Al = 844.05, k_Al = 131.61, sigma_Al = 4.1565E7, rho_Al = 2696.6, Cp_inlet = 966.95, k_inlet = 162.99, sigma_inlet = 3.0427E7, rho_inlet = 2117.3, Cp_outlet = 818.87, k_outlet = 135.37, sigma_outlet = 3.7462E7, rho_outlet = 2438.5, Cp_outlet_sleeve = 838.38, k_outlet_sleeve = 173.59, sigma_outlet_sleeve = 3.3389E7, rho_outlet_sleeve = 2305.7, Cp_inlet_sleeve = 882.79, k_inlet_sleeve = 150.57, sigma_inlet_sleeve = 4.5252E7, rho_inlet_sleeve = 2461.5) (degC), Point: 102Temperature (Cp_Al = 844.05, k_Al = 131.61, sigma_Al = 4.1565E7, rho_Al = 2696.6, Cp_inlet = 966.95, k_inlet = 162.99, sigma_inlet = 3.0427E7, rho_inlet = 2117.3, Cp_outlet = 818.87, k_outlet = 135.37, sigma_outlet = 3.7462E7, rho_outlet = 2438.5, Cp_outlet_sleeve = 838.38, k_outlet_sleeve = 173.59, sigma_outlet_sleeve = 3.3389E7, rho_outlet_sleeve = 2305.7, Cp_inlet_sleeve = 882.79, k_inlet_sleeve = 150.57, sigma_inlet_sleeve = 4.5252E7, rho_inlet_sleeve = 2461.5) (degC), Point: 127Temperature (Cp_Al = 844.05, k_Al = 131.61, sigma_Al = 4.1565E7, rho_Al = 2696.6, Cp_inlet = 966.95, k_inlet = 162.99, sigma_inlet = 3.0427E7, rho_inlet = 2117.3, Cp_outlet = 818.87, k_outlet = 135.37, sigma_outlet = 3.7462E7, rho_outlet = 2438.5, Cp_outlet_sleeve = 838.38, k_outlet_sleeve = 173.59, sigma_outlet_sleeve = 3.3389E7, rho_outlet_sleeve = 2305.7, Cp_inlet_sleeve = 882.79, k_inlet_sleeve = 150.57, sigma_inlet_sleeve = 4.5252E7, rho_inlet_sleeve = 2461.5) (degC), Point: 128Temperature (Cp_Al = 844.05, k_Al = 131.61, sigma_Al = 4.1565E7, rho_Al = 2696.6, Cp_inlet = 966.95, k_inlet = 162.99, sigma_inlet = 3.0427E7, rho_inlet = 2117.3, Cp_outlet = 818.87, k_outlet = 135.37, sigma_outlet = 3.7462E7, rho_outlet = 2438.5, Cp_outlet_sleeve = 838.38, k_outlet_sleeve = 173.59, sigma_outlet_sleeve = 3.3389E7, rho_outlet_sleeve = 2305.7, Cp_inlet_sleeve = 882.79, k_inlet_sleeve = 150.57, sigma_inlet_sleeve = 4.5252E7, rho_inlet_sleeve = 2461.5) (degC), Point: 134Temperature (Cp_Al = 844.05, k_Al = 131.61, sigma_Al = 4.1565E7, rho_Al = 2696.6, Cp_inlet = 966.95, k_inlet = 162.99, sigma_inlet = 3.0427E7, rho_inlet = 2117.3, Cp_outlet = 818.87, k_outlet = 135.37, sigma_outlet = 3.7462E7, rho_outlet = 2438.5, Cp_outlet_sleeve = 838.38, k_outlet_sleeve = 173.59, sigma_outlet_sleeve = 3.3389E7, rho_outlet_sleeve = 2305.7, Cp_inlet_sleeve = 882.79, k_inlet_sleeve = 150.57, sigma_inlet_sleeve = 4.5252E7, rho_inlet_sleeve = 2461.5) (degC), Point: 138Temperature (Cp_Al = 844.05, k_Al = 131.61, sigma_Al = 4.1565E7, rho_Al = 2696.6, Cp_inlet = 966.95, k_inlet = 162.99, sigma_inlet = 3.0427E7, rho_inlet = 2117.3, Cp_outlet = 818.87, k_outlet = 135.37, sigma_outlet = 3.7462E7, rho_outlet = 2438.5, Cp_outlet_sleeve = 838.38, k_outlet_sleeve = 173.59, sigma_outlet_sleeve = 3.3389E7, rho_outlet_sleeve = 2305.7, Cp_inlet_sleeve = 882.79, k_inlet_sleeve = 150.57, sigma_inlet_sleeve = 4.5252E7, rho_inlet_sleeve = 2461.5) (degC), Point: 151Temperature (Cp_Al = 844.05, k_Al = 131.61, sigma_Al = 4.1565E7, rho_Al = 2696.6, Cp_inlet = 966.95, k_inlet = 162.99, sigma_inlet = 3.0427E7, rho_inlet = 2117.3, Cp_outlet = 818.87, k_outlet = 135.37, sigma_outlet = 3.7462E7, rho_outlet = 2438.5, Cp_outlet_sleeve = 838.38, k_outlet_sleeve = 173.59, sigma_outlet_sleeve = 3.3389E7, rho_outlet_sleeve = 2305.7, Cp_inlet_sleeve = 882.79, k_inlet_sleeve = 150.57, sigma_inlet_sleeve = 4.5252E7, rho_inlet_sleeve = 2461.5) (degC), Point: 154Temperature (Cp_Al = 844.05, k_Al = 131.61, sigma_Al = 4.1565E7, rho_Al = 2696.6, Cp_inlet = 966.95, k_inlet = 162.99, sigma_inlet = 3.0427E7, rho_inlet = 2117.3, Cp_outlet = 818.87, k_outlet = 135.37, sigma_outlet = 3.7462E7, rho_outlet = 2438.5, Cp_outlet_sleeve = 838.38, k_outlet_sleeve = 173.59, sigma_outlet_sleeve = 3.3389E7, rho_outlet_sleeve = 2305.7, Cp_inlet_sleeve = 882.79, k_inlet_sleeve = 150.57, sigma_inlet_sleeve = 4.5252E7, rho_inlet_sleeve = 2461.5) (degC), Point: 159Temperature (Cp_Al = 844.05, k_Al = 131.61, sigma_Al = 4.1565E7, rho_Al = 2696.6, Cp_inlet = 966.95, k_inlet = 162.99, sigma_inlet = 3.0427E7, rho_inlet = 2117.3, Cp_outlet = 818.87, k_outlet = 135.37, sigma_outlet = 3.7462E7, rho_outlet = 2438.5, Cp_outlet_sleeve = 838.38, k_outlet_sleeve = 173.59, sigma_outlet_sleeve = 3.3389E7, rho_outlet_sleeve = 2305.7, Cp_inlet_sleeve = 882.79, k_inlet_sleeve = 150.57, sigma_inlet_sleeve = 4.5252E7, rho_inlet_sleeve = 2461.5) (degC), Point: 163Temperature (Cp_Al = 844.05, k_Al = 131.61, sigma_Al = 4.1565E7, rho_Al = 2696.6, Cp_inlet = 966.95, k_inlet = 162.99, sigma_inlet = 3.0427E7, rho_inlet = 2117.3, Cp_outlet = 818.87, k_outlet = 135.37, sigma_outlet = 3.7462E7, rho_outlet = 2438.5, Cp_outlet_sleeve = 838.38, k_outlet_sleeve = 173.59, sigma_outlet_sleeve = 3.3389E7, rho_outlet_sleeve = 2305.7, Cp_inlet_sleeve = 882.79, k_inlet_sleeve = 150.57, sigma_inlet_sleeve = 4.5252E7, rho_inlet_sleeve = 2461.5) (degC), Point: 167Temperature (Cp_Al = 844.05, k_Al = 131.61, sigma_Al = 4.1565E7, rho_Al = 2696.6, Cp_inlet = 966.95, k_inlet = 162.99, sigma_inlet = 3.0427E7, rho_inlet = 2117.3, Cp_outlet = 818.87, k_outlet = 135.37, sigma_outlet = 3.7462E7, rho_outlet = 2438.5, Cp_outlet_sleeve = 838.38, k_outlet_sleeve = 173.59, sigma_outlet_sleeve = 3.3389E7, rho_outlet_sleeve = 2305.7, Cp_inlet_sleeve = 882.79, k_inlet_sleeve = 150.57, sigma_inlet_sleeve = 4.5252E7, rho_inlet_sleeve = 2461.5) (degC), Point: 168Temperature (Cp_Al = 844.05, k_Al = 131.61, sigma_Al = 4.1565E7, rho_Al = 2696.6, Cp_inlet = 966.95, k_inlet = 162.99, sigma_inlet = 3.0427E7, rho_inlet = 2117.3, Cp_outlet = 818.87, k_outlet = 135.37, sigma_outlet = 3.7462E7, rho_outlet = 2438.5, Cp_outlet_sleeve = 838.38, k_outlet_sleeve = 173.59, sigma_outlet_sleeve = 3.3389E7, rho_outlet_sleeve = 2305.7, Cp_inlet_sleeve = 882.79, k_inlet_sleeve = 150.57, sigma_inlet_sleeve = 4.5252E7, rho_inlet_sleeve = 2461.5) (degC), Point: 172Temperature (Cp_Al = 844.05, k_Al = 131.61, sigma_Al = 4.1565E7, rho_Al = 2696.6, Cp_inlet = 966.95, k_inlet = 162.99, sigma_inlet = 3.0427E7, rho_inlet = 2117.3, Cp_outlet = 818.87, k_outlet = 135.37, sigma_outlet = 3.7462E7, rho_outlet = 2438.5, Cp_outlet_sleeve = 838.38, k_outlet_sleeve = 173.59, sigma_outlet_sleeve = 3.3389E7, rho_outlet_sleeve = 2305.7, Cp_inlet_sleeve = 882.79, k_inlet_sleeve = 150.57, sigma_inlet_sleeve = 4.5252E7, rho_inlet_sleeve = 2461.5) (degC), Point: 181Temperature (Cp_Al = 844.05, k_Al = 131.61, sigma_Al = 4.1565E7, rho_Al = 2696.6, Cp_inlet = 966.95, k_inlet = 162.99, sigma_inlet = 3.0427E7, rho_inlet = 2117.3, Cp_outlet = 818.87, k_outlet = 135.37, sigma_outlet = 3.7462E7, rho_outlet = 2438.5, Cp_outlet_sleeve = 838.38, k_outlet_sleeve = 173.59, sigma_outlet_sleeve = 3.3389E7, rho_outlet_sleeve = 2305.7, Cp_inlet_sleeve = 882.79, k_inlet_sleeve = 150.57, sigma_inlet_sleeve = 4.5252E7, rho_inlet_sleeve = 2461.5) (degC), Point: 201Temperature (Cp_Al = 844.05, k_Al = 131.61, sigma_Al = 4.1565E7, rho_Al = 2696.6, Cp_inlet = 966.95, k_inlet = 162.99, sigma_inlet = 3.0427E7, rho_inlet = 2117.3, Cp_outlet = 818.87, k_outlet = 135.37, sigma_outlet = 3.7462E7, rho_outlet = 2438.5, Cp_outlet_sleeve = 838.38, k_outlet_sleeve = 173.59, sigma_outlet_sleeve = 3.3389E7, rho_outlet_sleeve = 2305.7, Cp_inlet_sleeve = 882.79, k_inlet_sleeve = 150.57, sigma_inlet_sleeve = 4.5252E7, rho_inlet_sleeve = 2461.5) (degC), Point: 210Temperature (Cp_Al = 844.05, k_Al = 131.61, sigma_Al = 4.1565E7, rho_Al = 2696.6, Cp_inlet = 966.95, k_inlet = 162.99, sigma_inlet = 3.0427E7, rho_inlet = 2117.3, Cp_outlet = 818.87, k_outlet = 135.37, sigma_outlet = 3.7462E7, rho_outlet = 2438.5, Cp_outlet_sleeve = 838.38, k_outlet_sleeve = 173.59, sigma_outlet_sleeve = 3.3389E7, rho_outlet_sleeve = 2305.7, Cp_inlet_sleeve = 882.79, k_inlet_sleeve = 150.57, sigma_inlet_sleeve = 4.5252E7, rho_inlet_sleeve = 2461.5) (degC), Point: 213Temperature (Cp_Al = 844.05, k_Al = 131.61, sigma_Al = 4.1565E7, rho_Al = 2696.6, Cp_inlet = 966.95, k_inlet = 162.99, sigma_inlet = 3.0427E7, rho_inlet = 2117.3, Cp_outlet = 818.87, k_outlet = 135.37, sigma_outlet = 3.7462E7, rho_outlet = 2438.5, Cp_outlet_sleeve = 838.38, k_outlet_sleeve = 173.59, sigma_outlet_sleeve = 3.3389E7, rho_outlet_sleeve = 2305.7, Cp_inlet_sleeve = 882.79, k_inlet_sleeve = 150.57, sigma_inlet_sleeve = 4.5252E7, rho_inlet_sleeve = 2461.5) (degC), Point: 215Temperature (Cp_Al = 844.05, k_Al = 131.61, sigma_Al = 4.1565E7, rho_Al = 2696.6, Cp_inlet = 966.95, k_inlet = 162.99, sigma_inlet = 3.0427E7, rho_inlet = 2117.3, Cp_outlet = 818.87, k_outlet = 135.37, sigma_outlet = 3.7462E7, rho_outlet = 2438.5, Cp_outlet_sleeve = 838.38, k_outlet_sleeve = 173.59, sigma_outlet_sleeve = 3.3389E7, rho_outlet_sleeve = 2305.7, Cp_inlet_sleeve = 882.79, k_inlet_sleeve = 150.57, sigma_inlet_sleeve = 4.5252E7, rho_inlet_sleeve = 2461.5) (degC), Point: 229Temperature (Cp_Al = 844.05, k_Al = 131.61, sigma_Al = 4.1565E7, rho_Al = 2696.6, Cp_inlet = 966.95, k_inlet = 162.99, sigma_inlet = 3.0427E7, rho_inlet = 2117.3, Cp_outlet = 818.87, k_outlet = 135.37, sigma_outlet = 3.7462E7, rho_outlet = 2438.5, Cp_outlet_sleeve = 838.38, k_outlet_sleeve = 173.59, sigma_outlet_sleeve = 3.3389E7, rho_outlet_sleeve = 2305.7, Cp_inlet_sleeve = 882.79, k_inlet_sleeve = 150.57, sigma_inlet_sleeve = 4.5252E7, rho_inlet_sleeve = 2461.5) (degC), Point: 232Temperature (Cp_Al = 844.05, k_Al = 131.61, sigma_Al = 4.1565E7, rho_Al = 2696.6, Cp_inlet = 966.95, k_inlet = 162.99, sigma_inlet = 3.0427E7, rho_inlet = 2117.3, Cp_outlet = 818.87, k_outlet = 135.37, sigma_outlet = 3.7462E7, rho_outlet = 2438.5, Cp_outlet_sleeve = 838.38, k_outlet_sleeve = 173.59, sigma_outlet_sleeve = 3.3389E7, rho_outlet_sleeve = 2305.7, Cp_inlet_sleeve = 882.79, k_inlet_sleeve = 150.57, sigma_inlet_sleeve = 4.5252E7, rho_inlet_sleeve = 2461.5) (degC), Point: 239Temperature (Cp_Al = 844.05, k_Al = 131.61, sigma_Al = 4.1565E7, rho_Al = 2696.6, Cp_inlet = 966.95, k_inlet = 162.99, sigma_inlet = 3.0427E7, rho_inlet = 2117.3, Cp_outlet = 818.87, k_outlet = 135.37, sigma_outlet = 3.7462E7, rho_outlet = 2438.5, Cp_outlet_sleeve = 838.38, k_outlet_sleeve = 173.59, sigma_outlet_sleeve = 3.3389E7, rho_outlet_sleeve = 2305.7, Cp_inlet_sleeve = 882.79, k_inlet_sleeve = 150.57, sigma_inlet_sleeve = 4.5252E7, rho_inlet_sleeve = 2461.5) (degC), Point: 252Temperature (Cp_Al = 844.05, k_Al = 131.61, sigma_Al = 4.1565E7, rho_Al = 2696.6, Cp_inlet = 966.95, k_inlet = 162.99, sigma_inlet = 3.0427E7, rho_inlet = 2117.3, Cp_outlet = 818.87, k_outlet = 135.37, sigma_outlet = 3.7462E7, rho_outlet = 2438.5, Cp_outlet_sleeve = 838.38, k_outlet_sleeve = 173.59, sigma_outlet_sleeve = 3.3389E7, rho_outlet_sleeve = 2305.7, Cp_inlet_sleeve = 882.79, k_inlet_sleeve = 150.57, sigma_inlet_sleeve = 4.5252E7, rho_inlet_sleeve = 2461.5) (degC), Point: 261Temperature (Cp_Al = 844.05, k_Al = 131.61, sigma_Al = 4.1565E7, rho_Al = 2696.6, Cp_inlet = 966.95, k_inlet = 162.99, sigma_inlet = 3.0427E7, rho_inlet = 2117.3, Cp_outlet = 818.87, k_outlet = 135.37, sigma_outlet = 3.7462E7, rho_outlet = 2438.5, Cp_outlet_sleeve = 838.38, k_outlet_sleeve = 173.59, sigma_outlet_sleeve = 3.3389E7, rho_outlet_sleeve = 2305.7, Cp_inlet_sleeve = 882.79, k_inlet_sleeve = 150.57, sigma_inlet_sleeve = 4.5252E7, rho_inlet_sleeve = 2461.5) (degC), Point: 270Temperature (Cp_Al = 844.05, k_Al = 131.61, sigma_Al = 4.1565E7, rho_Al = 2696.6, Cp_inlet = 966.95, k_inlet = 162.99, sigma_inlet = 3.0427E7, rho_inlet = 2117.3, Cp_outlet = 818.87, k_outlet = 135.37, sigma_outlet = 3.7462E7, rho_outlet = 2438.5, Cp_outlet_sleeve = 838.38, k_outlet_sleeve = 173.59, sigma_outlet_sleeve = 3.3389E7, rho_outlet_sleeve = 2305.7, Cp_inlet_sleeve = 882.79, k_inlet_sleeve = 150.57, sigma_inlet_sleeve = 4.5252E7, rho_inlet_sleeve = 2461.5) (degC), Point: 273Temperature (Cp_Al = 844.05, k_Al = 131.61, sigma_Al = 4.1565E7, rho_Al = 2696.6, Cp_inlet = 966.95, k_inlet = 162.99, sigma_inlet = 3.0427E7, rho_inlet = 2117.3, Cp_outlet = 818.87, k_outlet = 135.37, sigma_outlet = 3.7462E7, rho_outlet = 2438.5, Cp_outlet_sleeve = 838.38, k_outlet_sleeve = 173.59, sigma_outlet_sleeve = 3.3389E7, rho_outlet_sleeve = 2305.7, Cp_inlet_sleeve = 882.79, k_inlet_sleeve = 150.57, sigma_inlet_sleeve = 4.5252E7, rho_inlet_sleeve = 2461.5) (degC), Point: 275
0                        21.678792565853655       21.014442721080627       21.13273332041564        21.009257730666434       21.014799696392288       21.10841559292868        21.009359485623065       21.030230366495744       21.001516518812934       21.024687268467744       21.001302325464906       21.000667546335535       21.009467660359803       21.000114168805794       21.008902252135385       21.02243331402161        21.000055885281085       21.011651205393775       21.00078510055755        21.00031739801824        21.001790669912793       21.000183713180093       21.00028220042634        21.00933650744969        21.11891027242234        21.01418092507248        21.629723906375204       21.009140767134454       21.145700496925144       21.017602046479          21.754931191299306
3                        324.7648038276925        292.5653597599711        303.79886927124494       299.7139808007173        277.6423913111611        291.047140916637         289.60408504886993       277.22511256432983       271.93017561604097       283.69882566057856       286.0126489157991        277.9366295538381        275.0011671151784        261.57213196464784       266.79853967463816       258.9626970802374        254.2556154488343        264.01208396715265       265.7980148407428        259.21666490559187       258.11150343533586       251.01071252053885       254.01402752257354       291.57764916055646       293.460768760267         279.19772642590317       314.75708646718147       301.17569219465315       305.4647177538312        291.4318152004661        328.32918984890625
6                        452.0020898407739        418.24102333299265       433.72640551482675       430.54662669219965       406.0289982829711        424.40470063675605       424.0037502800948        407.46195582068844       400.1567513603161        416.95336621838396       420.3155330044823        412.22220840597765       408.2420311952942        389.7776292190463        397.0035653933852        384.6880069252602        378.3376825138015        392.5622170793864        395.29752930115933       388.82799333005414       386.84338444948344       375.4834495976554        380.06427197292817       425.7759473757484        426.5888361255862        407.2410773457824        444.82920812289547       429.3549137957184        432.7164432381338        414.1580453549233        452.74306128669275
9                        525.1229437846239        490.4846621470243        508.77902769528964       506.40820296886443       478.76271841506343       500.3944208660381        500.8842191965523        481.2223316116168        472.79184534420733       492.88408966497184       497.1413425117885        489.040614522223         484.16597210225143       462.4014112193097        470.7429417137856        456.82707963510904       449.5483240827192        466.7228492305844        470.299753545204         463.99656455108345       461.2039970623649        446.99539408802286       452.4716013346866        502.5482355332965        502.44589057442647       479.7645798107475        518.4884223514804        503.6353281245116        506.15489401532534       484.5763162563303        524.125357809264
12                       575.4072660969168        540.187777618078         560.4817839826002        558.7463407028819        528.2622060655755        552.1640056923081        553.3350463536929        531.3863991476999        522.2273611608539        544.6163917519129        549.5578736312297        541.4558382004277        535.8967695438596        511.83124200230327       520.8944975585155        506.53154595822866       498.63796576429445       517.9076151426281        522.1436246523327        515.939422942051         512.5018480705227        496.2460659272084        502.3193540811843        554.9358145937126        554.1334885319486        529.129257195904         568.5882416827385        555.0660977600827        556.9158165095034        533.1739396528557        573.3652009977976
15                       613.0595573932078        577.4257646989021        599.223469330681         597.9971254294231        565.0572185014688        590.6259580720241        592.3280410567768        568.6447604718281        558.97963398693          583.0541280309087        588.5287428142503        580.4282340441293        574.3355252561283        548.5809319334695        558.1452137099492        543.820450517309         535.4897570713473        556.3299885948843        561.0928310140848        554.9757169337731        551.0153131453412        533.2085907796451        539.7096033157408        593.8913300175227        592.5434724406524        565.8353376448841        605.8046253337973        593.7898903367992        595.0981029069375        569.7235029366174        610.373443654871
18                       643.2316040310292        607.2844551570362        630.2693939298593        629.4638311474765        594.387983384487         621.2456991173863        623.3770693918902        598.3196020967074        588.280873311461         613.657663816033         619.5630647901953        611.4653129585755        604.9411992519155        577.881230718942         587.815147828402         573.7532852832707        565.0930772755008        587.169531552818         592.3669516121591        586.3306093047966        581.9347564370186        562.8974241643523        569.7228837827918        624.9179785000334        623.1292944077551        595.1054480478683        635.4510421035307        624.9453074455973        625.8034793582777        599.1380415800577        640.1346307923594
21                       668.9194079682762        632.72169020177          656.6846481380226        656.2359544665145        619.2864231169111        647.1904483637477        649.6807274226957        623.4899741591082        613.1581555814353        639.5911809778867        645.8565899034164        637.7620411377035        630.8772932110402        602.7584577012999        612.9822014625961        599.2750651920747        590.3523530886903        613.4441449183056        619.0094814372667        613.0475289253345        608.2808272482221        588.2274467075233        595.3124728442632        651.2081685003953        649.0511301698563        619.960995074947         660.6014062325792        651.5281006125656        652.0037117721843        624.2760765731108        665.5488653161106
24                       691.7944653652348        655.3880493810394        680.1809423046769        680.040256863315         641.4409791072767        670.2259347505847        673.023931573656         645.8699937303916        635.2970469550838        662.6186301255445        669.1925773979546        661.1012702948756        653.9073955726366        624.8977414449713        635.3598327362298        622.0291201014986        612.8885854027066        636.8396071496373        642.7219670648877        636.8274159545997        631.7401139407298        610.8243250651122        618.1252659114549        674.5432731039992        672.0706154398748        642.0841904010368        682.9668132538295        675.213047183859         675.3584914092899        646.7319923877147        688.2336107582455
27                       712.7498403945956        676.1657692254249        701.6735268791723        701.8007585284562        661.7544902540583        691.2963491545979        694.3617099950986        666.3755898135561        655.5986934489579        683.6831677367774        690.5250987815193        682.4368817146075        674.9744888606393        645.1999946633024        655.8636215500886        642.8932191224325        633.5678959722075        658.257210645201         664.4149221571797        658.5806332677329        653.2143818085326        631.5563552430327        639.0407119742471        695.8763188465246        693.1296001460541        662.3742287458291        703.4614511699373        696.8964844336286        696.7550887662683        667.3570037094067        709.0523008780241
