% Model:              brazing.mph
% Version:            COMSOL 5.3.0.223
% Date:               Oct 24 2018, 04:14
% Table:              Table 3 - 
% Time (s)               Temperature (Cp_Al = 851.1, k_Al = 141.84, sigma_Al = 4.4076E7, rho_Al = 2675.9, Cp_inlet = 881.11, k_inlet = 164.25, sigma_inlet = 3.2369E7, rho_inlet = 2386.8, Cp_outlet = 881.48, k_outlet = 146.73, sigma_outlet = 4.0384E7, rho_outlet = 2453.2, Cp_outlet_sleeve = 755.37, k_outlet_sleeve = 163.13, sigma_outlet_sleeve = 3.4133E7, rho_outlet_sleeve = 2610.4, Cp_inlet_sleeve = 904.07, k_inlet_sleeve = 149.27, sigma_inlet_sleeve = 4.3803E7, rho_inlet_sleeve = 2634.7) (degC), Point: 55Temperature (Cp_Al = 851.1, k_Al = 141.84, sigma_Al = 4.4076E7, rho_Al = 2675.9, Cp_inlet = 881.11, k_inlet = 164.25, sigma_inlet = 3.2369E7, rho_inlet = 2386.8, Cp_outlet = 881.48, k_outlet = 146.73, sigma_outlet = 4.0384E7, rho_outlet = 2453.2, Cp_outlet_sleeve = 755.37, k_outlet_sleeve = 163.13, sigma_outlet_sleeve = 3.4133E7, rho_outlet_sleeve = 2610.4, Cp_inlet_sleeve = 904.07, k_inlet_sleeve = 149.27, sigma_inlet_sleeve = 4.3803E7, rho_inlet_sleeve = 2634.7) (degC), Point: 56Temperature (Cp_Al = 851.1, k_Al = 141.84, sigma_Al = 4.4076E7, rho_Al = 2675.9, Cp_inlet = 881.11, k_inlet = 164.25, sigma_inlet = 3.2369E7, rho_inlet = 2386.8, Cp_outlet = 881.48, k_outlet = 146.73, sigma_outlet = 4.0384E7, rho_outlet = 2453.2, Cp_outlet_sleeve = 755.37, k_outlet_sleeve = 163.13, sigma_outlet_sleeve = 3.4133E7, rho_outlet_sleeve = 2610.4, Cp_inlet_sleeve = 904.07, k_inlet_sleeve = 149.27, sigma_inlet_sleeve = 4.3803E7, rho_inlet_sleeve = 2634.7) (degC), Point: 60Temperature (Cp_Al = 851.1, k_Al = 141.84, sigma_Al = 4.4076E7, rho_Al = 2675.9, Cp_inlet = 881.11, k_inlet = 164.25, sigma_inlet = 3.2369E7, rho_inlet = 2386.8, Cp_outlet = 881.48, k_outlet = 146.73, sigma_outlet = 4.0384E7, rho_outlet = 2453.2, Cp_outlet_sleeve = 755.37, k_outlet_sleeve = 163.13, sigma_outlet_sleeve = 3.4133E7, rho_outlet_sleeve = 2610.4, Cp_inlet_sleeve = 904.07, k_inlet_sleeve = 149.27, sigma_inlet_sleeve = 4.3803E7, rho_inlet_sleeve = 2634.7) (degC), Point: 69Temperature (Cp_Al = 851.1, k_Al = 141.84, sigma_Al = 4.4076E7, rho_Al = 2675.9, Cp_inlet = 881.11, k_inlet = 164.25, sigma_inlet = 3.2369E7, rho_inlet = 2386.8, Cp_outlet = 881.48, k_outlet = 146.73, sigma_outlet = 4.0384E7, rho_outlet = 2453.2, Cp_outlet_sleeve = 755.37, k_outlet_sleeve = 163.13, sigma_outlet_sleeve = 3.4133E7, rho_outlet_sleeve = 2610.4, Cp_inlet_sleeve = 904.07, k_inlet_sleeve = 149.27, sigma_inlet_sleeve = 4.3803E7, rho_inlet_sleeve = 2634.7) (degC), Point: 90Temperature (Cp_Al = 851.1, k_Al = 141.84, sigma_Al = 4.4076E7, rho_Al = 2675.9, Cp_inlet = 881.11, k_inlet = 164.25, sigma_inlet = 3.2369E7, rho_inlet = 2386.8, Cp_outlet = 881.48, k_outlet = 146.73, sigma_outlet = 4.0384E7, rho_outlet = 2453.2, Cp_outlet_sleeve = 755.37, k_outlet_sleeve = 163.13, sigma_outlet_sleeve = 3.4133E7, rho_outlet_sleeve = 2610.4, Cp_inlet_sleeve = 904.07, k_inlet_sleeve = 149.27, sigma_inlet_sleeve = 4.3803E7, rho_inlet_sleeve = 2634.7) (degC), Point: 98Temperature (Cp_Al = 851.1, k_Al = 141.84, sigma_Al = 4.4076E7, rho_Al = 2675.9, Cp_inlet = 881.11, k_inlet = 164.25, sigma_inlet = 3.2369E7, rho_inlet = 2386.8, Cp_outlet = 881.48, k_outlet = 146.73, sigma_outlet = 4.0384E7, rho_outlet = 2453.2, Cp_outlet_sleeve = 755.37, k_outlet_sleeve = 163.13, sigma_outlet_sleeve = 3.4133E7, rho_outlet_sleeve = 2610.4, Cp_inlet_sleeve = 904.07, k_inlet_sleeve = 149.27, sigma_inlet_sleeve = 4.3803E7, rho_inlet_sleeve = 2634.7) (degC), Point: 102Temperature (Cp_Al = 851.1, k_Al = 141.84, sigma_Al = 4.4076E7, rho_Al = 2675.9, Cp_inlet = 881.11, k_inlet = 164.25, sigma_inlet = 3.2369E7, rho_inlet = 2386.8, Cp_outlet = 881.48, k_outlet = 146.73, sigma_outlet = 4.0384E7, rho_outlet = 2453.2, Cp_outlet_sleeve = 755.37, k_outlet_sleeve = 163.13, sigma_outlet_sleeve = 3.4133E7, rho_outlet_sleeve = 2610.4, Cp_inlet_sleeve = 904.07, k_inlet_sleeve = 149.27, sigma_inlet_sleeve = 4.3803E7, rho_inlet_sleeve = 2634.7) (degC), Point: 127Temperature (Cp_Al = 851.1, k_Al = 141.84, sigma_Al = 4.4076E7, rho_Al = 2675.9, Cp_inlet = 881.11, k_inlet = 164.25, sigma_inlet = 3.2369E7, rho_inlet = 2386.8, Cp_outlet = 881.48, k_outlet = 146.73, sigma_outlet = 4.0384E7, rho_outlet = 2453.2, Cp_outlet_sleeve = 755.37, k_outlet_sleeve = 163.13, sigma_outlet_sleeve = 3.4133E7, rho_outlet_sleeve = 2610.4, Cp_inlet_sleeve = 904.07, k_inlet_sleeve = 149.27, sigma_inlet_sleeve = 4.3803E7, rho_inlet_sleeve = 2634.7) (degC), Point: 128Temperature (Cp_Al = 851.1, k_Al = 141.84, sigma_Al = 4.4076E7, rho_Al = 2675.9, Cp_inlet = 881.11, k_inlet = 164.25, sigma_inlet = 3.2369E7, rho_inlet = 2386.8, Cp_outlet = 881.48, k_outlet = 146.73, sigma_outlet = 4.0384E7, rho_outlet = 2453.2, Cp_outlet_sleeve = 755.37, k_outlet_sleeve = 163.13, sigma_outlet_sleeve = 3.4133E7, rho_outlet_sleeve = 2610.4, Cp_inlet_sleeve = 904.07, k_inlet_sleeve = 149.27, sigma_inlet_sleeve = 4.3803E7, rho_inlet_sleeve = 2634.7) (degC), Point: 134Temperature (Cp_Al = 851.1, k_Al = 141.84, sigma_Al = 4.4076E7, rho_Al = 2675.9, Cp_inlet = 881.11, k_inlet = 164.25, sigma_inlet = 3.2369E7, rho_inlet = 2386.8, Cp_outlet = 881.48, k_outlet = 146.73, sigma_outlet = 4.0384E7, rho_outlet = 2453.2, Cp_outlet_sleeve = 755.37, k_outlet_sleeve = 163.13, sigma_outlet_sleeve = 3.4133E7, rho_outlet_sleeve = 2610.4, Cp_inlet_sleeve = 904.07, k_inlet_sleeve = 149.27, sigma_inlet_sleeve = 4.3803E7, rho_inlet_sleeve = 2634.7) (degC), Point: 138Temperature (Cp_Al = 851.1, k_Al = 141.84, sigma_Al = 4.4076E7, rho_Al = 2675.9, Cp_inlet = 881.11, k_inlet = 164.25, sigma_inlet = 3.2369E7, rho_inlet = 2386.8, Cp_outlet = 881.48, k_outlet = 146.73, sigma_outlet = 4.0384E7, rho_outlet = 2453.2, Cp_outlet_sleeve = 755.37, k_outlet_sleeve = 163.13, sigma_outlet_sleeve = 3.4133E7, rho_outlet_sleeve = 2610.4, Cp_inlet_sleeve = 904.07, k_inlet_sleeve = 149.27, sigma_inlet_sleeve = 4.3803E7, rho_inlet_sleeve = 2634.7) (degC), Point: 151Temperature (Cp_Al = 851.1, k_Al = 141.84, sigma_Al = 4.4076E7, rho_Al = 2675.9, Cp_inlet = 881.11, k_inlet = 164.25, sigma_inlet = 3.2369E7, rho_inlet = 2386.8, Cp_outlet = 881.48, k_outlet = 146.73, sigma_outlet = 4.0384E7, rho_outlet = 2453.2, Cp_outlet_sleeve = 755.37, k_outlet_sleeve = 163.13, sigma_outlet_sleeve = 3.4133E7, rho_outlet_sleeve = 2610.4, Cp_inlet_sleeve = 904.07, k_inlet_sleeve = 149.27, sigma_inlet_sleeve = 4.3803E7, rho_inlet_sleeve = 2634.7) (degC), Point: 154Temperature (Cp_Al = 851.1, k_Al = 141.84, sigma_Al = 4.4076E7, rho_Al = 2675.9, Cp_inlet = 881.11, k_inlet = 164.25, sigma_inlet = 3.2369E7, rho_inlet = 2386.8, Cp_outlet = 881.48, k_outlet = 146.73, sigma_outlet = 4.0384E7, rho_outlet = 2453.2, Cp_outlet_sleeve = 755.37, k_outlet_sleeve = 163.13, sigma_outlet_sleeve = 3.4133E7, rho_outlet_sleeve = 2610.4, Cp_inlet_sleeve = 904.07, k_inlet_sleeve = 149.27, sigma_inlet_sleeve = 4.3803E7, rho_inlet_sleeve = 2634.7) (degC), Point: 159Temperature (Cp_Al = 851.1, k_Al = 141.84, sigma_Al = 4.4076E7, rho_Al = 2675.9, Cp_inlet = 881.11, k_inlet = 164.25, sigma_inlet = 3.2369E7, rho_inlet = 2386.8, Cp_outlet = 881.48, k_outlet = 146.73, sigma_outlet = 4.0384E7, rho_outlet = 2453.2, Cp_outlet_sleeve = 755.37, k_outlet_sleeve = 163.13, sigma_outlet_sleeve = 3.4133E7, rho_outlet_sleeve = 2610.4, Cp_inlet_sleeve = 904.07, k_inlet_sleeve = 149.27, sigma_inlet_sleeve = 4.3803E7, rho_inlet_sleeve = 2634.7) (degC), Point: 163Temperature (Cp_Al = 851.1, k_Al = 141.84, sigma_Al = 4.4076E7, rho_Al = 2675.9, Cp_inlet = 881.11, k_inlet = 164.25, sigma_inlet = 3.2369E7, rho_inlet = 2386.8, Cp_outlet = 881.48, k_outlet = 146.73, sigma_outlet = 4.0384E7, rho_outlet = 2453.2, Cp_outlet_sleeve = 755.37, k_outlet_sleeve = 163.13, sigma_outlet_sleeve = 3.4133E7, rho_outlet_sleeve = 2610.4, Cp_inlet_sleeve = 904.07, k_inlet_sleeve = 149.27, sigma_inlet_sleeve = 4.3803E7, rho_inlet_sleeve = 2634.7) (degC), Point: 167Temperature (Cp_Al = 851.1, k_Al = 141.84, sigma_Al = 4.4076E7, rho_Al = 2675.9, Cp_inlet = 881.11, k_inlet = 164.25, sigma_inlet = 3.2369E7, rho_inlet = 2386.8, Cp_outlet = 881.48, k_outlet = 146.73, sigma_outlet = 4.0384E7, rho_outlet = 2453.2, Cp_outlet_sleeve = 755.37, k_outlet_sleeve = 163.13, sigma_outlet_sleeve = 3.4133E7, rho_outlet_sleeve = 2610.4, Cp_inlet_sleeve = 904.07, k_inlet_sleeve = 149.27, sigma_inlet_sleeve = 4.3803E7, rho_inlet_sleeve = 2634.7) (degC), Point: 168Temperature (Cp_Al = 851.1, k_Al = 141.84, sigma_Al = 4.4076E7, rho_Al = 2675.9, Cp_inlet = 881.11, k_inlet = 164.25, sigma_inlet = 3.2369E7, rho_inlet = 2386.8, Cp_outlet = 881.48, k_outlet = 146.73, sigma_outlet = 4.0384E7, rho_outlet = 2453.2, Cp_outlet_sleeve = 755.37, k_outlet_sleeve = 163.13, sigma_outlet_sleeve = 3.4133E7, rho_outlet_sleeve = 2610.4, Cp_inlet_sleeve = 904.07, k_inlet_sleeve = 149.27, sigma_inlet_sleeve = 4.3803E7, rho_inlet_sleeve = 2634.7) (degC), Point: 172Temperature (Cp_Al = 851.1, k_Al = 141.84, sigma_Al = 4.4076E7, rho_Al = 2675.9, Cp_inlet = 881.11, k_inlet = 164.25, sigma_inlet = 3.2369E7, rho_inlet = 2386.8, Cp_outlet = 881.48, k_outlet = 146.73, sigma_outlet = 4.0384E7, rho_outlet = 2453.2, Cp_outlet_sleeve = 755.37, k_outlet_sleeve = 163.13, sigma_outlet_sleeve = 3.4133E7, rho_outlet_sleeve = 2610.4, Cp_inlet_sleeve = 904.07, k_inlet_sleeve = 149.27, sigma_inlet_sleeve = 4.3803E7, rho_inlet_sleeve = 2634.7) (degC), Point: 181Temperature (Cp_Al = 851.1, k_Al = 141.84, sigma_Al = 4.4076E7, rho_Al = 2675.9, Cp_inlet = 881.11, k_inlet = 164.25, sigma_inlet = 3.2369E7, rho_inlet = 2386.8, Cp_outlet = 881.48, k_outlet = 146.73, sigma_outlet = 4.0384E7, rho_outlet = 2453.2, Cp_outlet_sleeve = 755.37, k_outlet_sleeve = 163.13, sigma_outlet_sleeve = 3.4133E7, rho_outlet_sleeve = 2610.4, Cp_inlet_sleeve = 904.07, k_inlet_sleeve = 149.27, sigma_inlet_sleeve = 4.3803E7, rho_inlet_sleeve = 2634.7) (degC), Point: 201Temperature (Cp_Al = 851.1, k_Al = 141.84, sigma_Al = 4.4076E7, rho_Al = 2675.9, Cp_inlet = 881.11, k_inlet = 164.25, sigma_inlet = 3.2369E7, rho_inlet = 2386.8, Cp_outlet = 881.48, k_outlet = 146.73, sigma_outlet = 4.0384E7, rho_outlet = 2453.2, Cp_outlet_sleeve = 755.37, k_outlet_sleeve = 163.13, sigma_outlet_sleeve = 3.4133E7, rho_outlet_sleeve = 2610.4, Cp_inlet_sleeve = 904.07, k_inlet_sleeve = 149.27, sigma_inlet_sleeve = 4.3803E7, rho_inlet_sleeve = 2634.7) (degC), Point: 210Temperature (Cp_Al = 851.1, k_Al = 141.84, sigma_Al = 4.4076E7, rho_Al = 2675.9, Cp_inlet = 881.11, k_inlet = 164.25, sigma_inlet = 3.2369E7, rho_inlet = 2386.8, Cp_outlet = 881.48, k_outlet = 146.73, sigma_outlet = 4.0384E7, rho_outlet = 2453.2, Cp_outlet_sleeve = 755.37, k_outlet_sleeve = 163.13, sigma_outlet_sleeve = 3.4133E7, rho_outlet_sleeve = 2610.4, Cp_inlet_sleeve = 904.07, k_inlet_sleeve = 149.27, sigma_inlet_sleeve = 4.3803E7, rho_inlet_sleeve = 2634.7) (degC), Point: 213Temperature (Cp_Al = 851.1, k_Al = 141.84, sigma_Al = 4.4076E7, rho_Al = 2675.9, Cp_inlet = 881.11, k_inlet = 164.25, sigma_inlet = 3.2369E7, rho_inlet = 2386.8, Cp_outlet = 881.48, k_outlet = 146.73, sigma_outlet = 4.0384E7, rho_outlet = 2453.2, Cp_outlet_sleeve = 755.37, k_outlet_sleeve = 163.13, sigma_outlet_sleeve = 3.4133E7, rho_outlet_sleeve = 2610.4, Cp_inlet_sleeve = 904.07, k_inlet_sleeve = 149.27, sigma_inlet_sleeve = 4.3803E7, rho_inlet_sleeve = 2634.7) (degC), Point: 215Temperature (Cp_Al = 851.1, k_Al = 141.84, sigma_Al = 4.4076E7, rho_Al = 2675.9, Cp_inlet = 881.11, k_inlet = 164.25, sigma_inlet = 3.2369E7, rho_inlet = 2386.8, Cp_outlet = 881.48, k_outlet = 146.73, sigma_outlet = 4.0384E7, rho_outlet = 2453.2, Cp_outlet_sleeve = 755.37, k_outlet_sleeve = 163.13, sigma_outlet_sleeve = 3.4133E7, rho_outlet_sleeve = 2610.4, Cp_inlet_sleeve = 904.07, k_inlet_sleeve = 149.27, sigma_inlet_sleeve = 4.3803E7, rho_inlet_sleeve = 2634.7) (degC), Point: 229Temperature (Cp_Al = 851.1, k_Al = 141.84, sigma_Al = 4.4076E7, rho_Al = 2675.9, Cp_inlet = 881.11, k_inlet = 164.25, sigma_inlet = 3.2369E7, rho_inlet = 2386.8, Cp_outlet = 881.48, k_outlet = 146.73, sigma_outlet = 4.0384E7, rho_outlet = 2453.2, Cp_outlet_sleeve = 755.37, k_outlet_sleeve = 163.13, sigma_outlet_sleeve = 3.4133E7, rho_outlet_sleeve = 2610.4, Cp_inlet_sleeve = 904.07, k_inlet_sleeve = 149.27, sigma_inlet_sleeve = 4.3803E7, rho_inlet_sleeve = 2634.7) (degC), Point: 232Temperature (Cp_Al = 851.1, k_Al = 141.84, sigma_Al = 4.4076E7, rho_Al = 2675.9, Cp_inlet = 881.11, k_inlet = 164.25, sigma_inlet = 3.2369E7, rho_inlet = 2386.8, Cp_outlet = 881.48, k_outlet = 146.73, sigma_outlet = 4.0384E7, rho_outlet = 2453.2, Cp_outlet_sleeve = 755.37, k_outlet_sleeve = 163.13, sigma_outlet_sleeve = 3.4133E7, rho_outlet_sleeve = 2610.4, Cp_inlet_sleeve = 904.07, k_inlet_sleeve = 149.27, sigma_inlet_sleeve = 4.3803E7, rho_inlet_sleeve = 2634.7) (degC), Point: 239Temperature (Cp_Al = 851.1, k_Al = 141.84, sigma_Al = 4.4076E7, rho_Al = 2675.9, Cp_inlet = 881.11, k_inlet = 164.25, sigma_inlet = 3.2369E7, rho_inlet = 2386.8, Cp_outlet = 881.48, k_outlet = 146.73, sigma_outlet = 4.0384E7, rho_outlet = 2453.2, Cp_outlet_sleeve = 755.37, k_outlet_sleeve = 163.13, sigma_outlet_sleeve = 3.4133E7, rho_outlet_sleeve = 2610.4, Cp_inlet_sleeve = 904.07, k_inlet_sleeve = 149.27, sigma_inlet_sleeve = 4.3803E7, rho_inlet_sleeve = 2634.7) (degC), Point: 252Temperature (Cp_Al = 851.1, k_Al = 141.84, sigma_Al = 4.4076E7, rho_Al = 2675.9, Cp_inlet = 881.11, k_inlet = 164.25, sigma_inlet = 3.2369E7, rho_inlet = 2386.8, Cp_outlet = 881.48, k_outlet = 146.73, sigma_outlet = 4.0384E7, rho_outlet = 2453.2, Cp_outlet_sleeve = 755.37, k_outlet_sleeve = 163.13, sigma_outlet_sleeve = 3.4133E7, rho_outlet_sleeve = 2610.4, Cp_inlet_sleeve = 904.07, k_inlet_sleeve = 149.27, sigma_inlet_sleeve = 4.3803E7, rho_inlet_sleeve = 2634.7) (degC), Point: 261Temperature (Cp_Al = 851.1, k_Al = 141.84, sigma_Al = 4.4076E7, rho_Al = 2675.9, Cp_inlet = 881.11, k_inlet = 164.25, sigma_inlet = 3.2369E7, rho_inlet = 2386.8, Cp_outlet = 881.48, k_outlet = 146.73, sigma_outlet = 4.0384E7, rho_outlet = 2453.2, Cp_outlet_sleeve = 755.37, k_outlet_sleeve = 163.13, sigma_outlet_sleeve = 3.4133E7, rho_outlet_sleeve = 2610.4, Cp_inlet_sleeve = 904.07, k_inlet_sleeve = 149.27, sigma_inlet_sleeve = 4.3803E7, rho_inlet_sleeve = 2634.7) (degC), Point: 270Temperature (Cp_Al = 851.1, k_Al = 141.84, sigma_Al = 4.4076E7, rho_Al = 2675.9, Cp_inlet = 881.11, k_inlet = 164.25, sigma_inlet = 3.2369E7, rho_inlet = 2386.8, Cp_outlet = 881.48, k_outlet = 146.73, sigma_outlet = 4.0384E7, rho_outlet = 2453.2, Cp_outlet_sleeve = 755.37, k_outlet_sleeve = 163.13, sigma_outlet_sleeve = 3.4133E7, rho_outlet_sleeve = 2610.4, Cp_inlet_sleeve = 904.07, k_inlet_sleeve = 149.27, sigma_inlet_sleeve = 4.3803E7, rho_inlet_sleeve = 2634.7) (degC), Point: 273Temperature (Cp_Al = 851.1, k_Al = 141.84, sigma_Al = 4.4076E7, rho_Al = 2675.9, Cp_inlet = 881.11, k_inlet = 164.25, sigma_inlet = 3.2369E7, rho_inlet = 2386.8, Cp_outlet = 881.48, k_outlet = 146.73, sigma_outlet = 4.0384E7, rho_outlet = 2453.2, Cp_outlet_sleeve = 755.37, k_outlet_sleeve = 163.13, sigma_outlet_sleeve = 3.4133E7, rho_outlet_sleeve = 2610.4, Cp_inlet_sleeve = 904.07, k_inlet_sleeve = 149.27, sigma_inlet_sleeve = 4.3803E7, rho_inlet_sleeve = 2634.7) (degC), Point: 275
0                        21.67490829177217        21.01404411449522        21.13153848306291        21.008604683551823       21.01360736137741        21.108214730394536       21.009109656811177       21.02721412318448        21.001400510308315       21.024622072590716       21.001274706895458       21.000658400078294       21.009490193000545       21.000108874531975       21.008046525964517       21.022244336701306       21.000055925993138       21.01154710275341        21.000736090998885       21.00030173682586        21.001778965629114       21.000182114648226       21.00027890847315        21.009094554407227       21.118695417758374       21.013044811156817       21.570025778870274       21.008478673680656       21.144359824100718       21.017302096704327       21.750706514060596
3                        316.9336031763669        283.1491599083655        292.40099858486553       287.6670142026047        267.7163141307751        280.8833583659182        279.3494422993117        267.13274768974895       261.9587468149741        273.55734895599016       275.7898803424159        267.74995862538265       264.88209315116194       251.55254435118138       256.6874244942884        249.51319620196261       244.961779994734         253.65940395853977       255.00029163189765       248.78572198291602       248.0313574211275        241.79626628846904       244.5813653379156        281.33829370894034       283.31760126069764       269.31174413882707       304.88222011524226       289.2335413473694        294.20622063275357       282.27483585696086       320.9811754161419
6                        441.96126287010077       406.624410646147         419.8802820421233        415.9412527705865        394.0903317461008        412.0287976187466        411.4731530136129        395.36040727411523       388.1823309533348        404.60568713413056       407.8222514571279        399.76375048949603       395.9153506829783        377.7533253343229        384.88286941294655       373.20105438649114       367.0216681082369        379.9212868008276        382.09675730909146       375.89082367403955       374.36732084248024       364.1255718449112        368.47679239493846       413.26953943413776       414.2446111355796        395.360404405243         432.95272315686964       415.06385179315          419.22375251926053       403.03857166784564       443.4138715320555
9                        514.5460911200516        478.3011890516809        494.34106882454137       491.17489465732865       466.1354221293775        487.28725251772914       487.598324668284         468.45768212507164       460.13613653464915       479.80952462182586       483.8966915766988        475.8293716920805        471.11090793640403       449.69342133718794       457.9574668080526        444.89732689480354       437.76280635908745       453.57528102800643       456.5528760968979        450.46723246016654       448.1739243251657        435.1160430528864        440.3908412370456        489.2926706110277        489.3779229587607        467.207783810156         505.9533534725133        488.83564432663593       492.1952333105929        473.03526431641546       514.3983552533984
12                       564.3614531761552        527.508593343082         545.5612704505063        543.0165093014463        514.7452296037573        538.1561273399045        539.1402691534868        517.7487637301872        508.6870602884326        530.6442569551238        535.4071595888237        527.3374004977096        521.9429419992574        498.23699167049904       507.2346359104281        494.1892238762497        486.4156170508039        504.3287260836579        507.9492875578791        501.9382539741299        499.0157136340039        483.9034651526674        489.8001325486224        540.7757475943018        540.1700098812693        515.6914093819461        555.1831461113121        539.8450908218989        542.5528900501915        521.2304235900505        563.2579053195506
15                       601.8327884967443        564.5411536846849        584.1251842494876        582.0838467801184        550.8351311489475        575.9120771675363        577.4230638943295        554.3143481797773        544.7373883571763        568.3779183320879        573.6695511348717        565.6008507144867        559.6771619416515        534.2841650373373        543.7920746430173        531.3309150493296        523.097157956059         542.6038752049313        546.7442162265294        540.8081044934885        537.3699725268423        520.6838763909701        527.0312766950643        579.0239608514473        577.8774499265555        551.69821081828          591.7089600289319        578.4325587958613        580.607552023917         557.6342250404522        600.1419329777046
18                       631.7285723856795        594.1047805303915        614.9013077609312        613.2781456337729        579.3289746700564        605.6862181162005        607.6216524328164        583.1571637292712        573.2041293402996        598.1373271009272        603.8547566969871        595.7887090256484        589.4386282275192        562.749948146779         572.6299729097527        561.0120755709191        552.4310160335309        573.1959129391832        577.7672507917081        571.9064230623928        568.0366125047822        550.0982605528917        556.7877912743515        609.202635417786         607.6206001613442        580.1362768310103        620.5254016017325        609.3535198507146        611.083286244889         586.8009100394821        629.6718998832087
21                       657.3068158030198        619.4146808513808        641.2190060376786        639.9532171990608        603.5699849236602        630.9686903800269        633.2594634114072        607.6741143725029        597.4256328835419        623.4095617216143        629.4833256873948        621.4204844298205        614.7134782567357        586.9715648604766        597.1437366414374        586.4401863866431        577.5794737512358        599.3873435535646        604.3264418448748        598.5379215094697        594.2977474083178        575.3165013092021        582.2824951295356        634.8287032887209        632.8822326040759        604.337896416094         645.0238798306251        635.8651788191902        637.2135838462485        611.8443384438906        655.0078104804361
24                       680.0659784107576        641.9498033497229        664.6120046979185        663.6558383021643        625.0871045968955        653.3594701240149        655.9541625502873        629.418461926891         618.9284079383548        645.7930967767328        652.171520897851         644.1120050864228        637.0997852056533        608.475005915399         618.8859272279997        609.0907632172026        599.9973627326791        622.6907639436233        627.9480007435767        622.2265072375599        617.6648813279713        597.7955985367346        604.9921431154128        657.5167534575564        655.2587600101624        625.8265934089521        666.7549644916394        659.4700604541271        660.4879892772776        634.1959013393797        677.6023774854553
27                       700.9146779988864        662.6072026931737        686.0109334267154        685.3251489016807        644.8063478622291        673.8278085958709        676.6862334743065        649.3304554209702        638.636847888977         666.2561942744618        672.8989082918316        664.842599763618         657.565588037411         628.1843591893061        638.7963771517055        629.8580656321054        620.5665994760972        644.0236907336013        649.5583630453261        643.8976131539929        639.0551607487351        618.4188053084519        625.8118376454995        678.2453018651743        675.7171313786264        645.5248121066902        686.6571605518604        681.0803878481332        681.8100149410806        654.7227610511765        698.3356421143533
