% Model:              brazing.mph
% Version:            COMSOL 5.3.0.223
% Date:               Oct 24 2018, 05:28
% Table:              Table 3 - 
% Time (s)               Temperature (Cp_Al = 905.34, k_Al = 138.78, sigma_Al = 3.9064E7, rho_Al = 2722.5, Cp_inlet = 1014.8, k_inlet = 160.26, sigma_inlet = 3.0924E7, rho_inlet = 2207.1, Cp_outlet = 806.47, k_outlet = 142.24, sigma_outlet = 3.3628E7, rho_outlet = 2444.8, Cp_outlet_sleeve = 918.69, k_outlet_sleeve = 176.38, sigma_outlet_sleeve = 3.4121E7, rho_outlet_sleeve = 2194.3, Cp_inlet_sleeve = 880.4, k_inlet_sleeve = 147.2, sigma_inlet_sleeve = 4.3757E7, rho_inlet_sleeve = 2406.7) (degC), Point: 55Temperature (Cp_Al = 905.34, k_Al = 138.78, sigma_Al = 3.9064E7, rho_Al = 2722.5, Cp_inlet = 1014.8, k_inlet = 160.26, sigma_inlet = 3.0924E7, rho_inlet = 2207.1, Cp_outlet = 806.47, k_outlet = 142.24, sigma_outlet = 3.3628E7, rho_outlet = 2444.8, Cp_outlet_sleeve = 918.69, k_outlet_sleeve = 176.38, sigma_outlet_sleeve = 3.4121E7, rho_outlet_sleeve = 2194.3, Cp_inlet_sleeve = 880.4, k_inlet_sleeve = 147.2, sigma_inlet_sleeve = 4.3757E7, rho_inlet_sleeve = 2406.7) (degC), Point: 56Temperature (Cp_Al = 905.34, k_Al = 138.78, sigma_Al = 3.9064E7, rho_Al = 2722.5, Cp_inlet = 1014.8, k_inlet = 160.26, sigma_inlet = 3.0924E7, rho_inlet = 2207.1, Cp_outlet = 806.47, k_outlet = 142.24, sigma_outlet = 3.3628E7, rho_outlet = 2444.8, Cp_outlet_sleeve = 918.69, k_outlet_sleeve = 176.38, sigma_outlet_sleeve = 3.4121E7, rho_outlet_sleeve = 2194.3, Cp_inlet_sleeve = 880.4, k_inlet_sleeve = 147.2, sigma_inlet_sleeve = 4.3757E7, rho_inlet_sleeve = 2406.7) (degC), Point: 60Temperature (Cp_Al = 905.34, k_Al = 138.78, sigma_Al = 3.9064E7, rho_Al = 2722.5, Cp_inlet = 1014.8, k_inlet = 160.26, sigma_inlet = 3.0924E7, rho_inlet = 2207.1, Cp_outlet = 806.47, k_outlet = 142.24, sigma_outlet = 3.3628E7, rho_outlet = 2444.8, Cp_outlet_sleeve = 918.69, k_outlet_sleeve = 176.38, sigma_outlet_sleeve = 3.4121E7, rho_outlet_sleeve = 2194.3, Cp_inlet_sleeve = 880.4, k_inlet_sleeve = 147.2, sigma_inlet_sleeve = 4.3757E7, rho_inlet_sleeve = 2406.7) (degC), Point: 69Temperature (Cp_Al = 905.34, k_Al = 138.78, sigma_Al = 3.9064E7, rho_Al = 2722.5, Cp_inlet = 1014.8, k_inlet = 160.26, sigma_inlet = 3.0924E7, rho_inlet = 2207.1, Cp_outlet = 806.47, k_outlet = 142.24, sigma_outlet = 3.3628E7, rho_outlet = 2444.8, Cp_outlet_sleeve = 918.69, k_outlet_sleeve = 176.38, sigma_outlet_sleeve = 3.4121E7, rho_outlet_sleeve = 2194.3, Cp_inlet_sleeve = 880.4, k_inlet_sleeve = 147.2, sigma_inlet_sleeve = 4.3757E7, rho_inlet_sleeve = 2406.7) (degC), Point: 90Temperature (Cp_Al = 905.34, k_Al = 138.78, sigma_Al = 3.9064E7, rho_Al = 2722.5, Cp_inlet = 1014.8, k_inlet = 160.26, sigma_inlet = 3.0924E7, rho_inlet = 2207.1, Cp_outlet = 806.47, k_outlet = 142.24, sigma_outlet = 3.3628E7, rho_outlet = 2444.8, Cp_outlet_sleeve = 918.69, k_outlet_sleeve = 176.38, sigma_outlet_sleeve = 3.4121E7, rho_outlet_sleeve = 2194.3, Cp_inlet_sleeve = 880.4, k_inlet_sleeve = 147.2, sigma_inlet_sleeve = 4.3757E7, rho_inlet_sleeve = 2406.7) (degC), Point: 98Temperature (Cp_Al = 905.34, k_Al = 138.78, sigma_Al = 3.9064E7, rho_Al = 2722.5, Cp_inlet = 1014.8, k_inlet = 160.26, sigma_inlet = 3.0924E7, rho_inlet = 2207.1, Cp_outlet = 806.47, k_outlet = 142.24, sigma_outlet = 3.3628E7, rho_outlet = 2444.8, Cp_outlet_sleeve = 918.69, k_outlet_sleeve = 176.38, sigma_outlet_sleeve = 3.4121E7, rho_outlet_sleeve = 2194.3, Cp_inlet_sleeve = 880.4, k_inlet_sleeve = 147.2, sigma_inlet_sleeve = 4.3757E7, rho_inlet_sleeve = 2406.7) (degC), Point: 102Temperature (Cp_Al = 905.34, k_Al = 138.78, sigma_Al = 3.9064E7, rho_Al = 2722.5, Cp_inlet = 1014.8, k_inlet = 160.26, sigma_inlet = 3.0924E7, rho_inlet = 2207.1, Cp_outlet = 806.47, k_outlet = 142.24, sigma_outlet = 3.3628E7, rho_outlet = 2444.8, Cp_outlet_sleeve = 918.69, k_outlet_sleeve = 176.38, sigma_outlet_sleeve = 3.4121E7, rho_outlet_sleeve = 2194.3, Cp_inlet_sleeve = 880.4, k_inlet_sleeve = 147.2, sigma_inlet_sleeve = 4.3757E7, rho_inlet_sleeve = 2406.7) (degC), Point: 127Temperature (Cp_Al = 905.34, k_Al = 138.78, sigma_Al = 3.9064E7, rho_Al = 2722.5, Cp_inlet = 1014.8, k_inlet = 160.26, sigma_inlet = 3.0924E7, rho_inlet = 2207.1, Cp_outlet = 806.47, k_outlet = 142.24, sigma_outlet = 3.3628E7, rho_outlet = 2444.8, Cp_outlet_sleeve = 918.69, k_outlet_sleeve = 176.38, sigma_outlet_sleeve = 3.4121E7, rho_outlet_sleeve = 2194.3, Cp_inlet_sleeve = 880.4, k_inlet_sleeve = 147.2, sigma_inlet_sleeve = 4.3757E7, rho_inlet_sleeve = 2406.7) (degC), Point: 128Temperature (Cp_Al = 905.34, k_Al = 138.78, sigma_Al = 3.9064E7, rho_Al = 2722.5, Cp_inlet = 1014.8, k_inlet = 160.26, sigma_inlet = 3.0924E7, rho_inlet = 2207.1, Cp_outlet = 806.47, k_outlet = 142.24, sigma_outlet = 3.3628E7, rho_outlet = 2444.8, Cp_outlet_sleeve = 918.69, k_outlet_sleeve = 176.38, sigma_outlet_sleeve = 3.4121E7, rho_outlet_sleeve = 2194.3, Cp_inlet_sleeve = 880.4, k_inlet_sleeve = 147.2, sigma_inlet_sleeve = 4.3757E7, rho_inlet_sleeve = 2406.7) (degC), Point: 134Temperature (Cp_Al = 905.34, k_Al = 138.78, sigma_Al = 3.9064E7, rho_Al = 2722.5, Cp_inlet = 1014.8, k_inlet = 160.26, sigma_inlet = 3.0924E7, rho_inlet = 2207.1, Cp_outlet = 806.47, k_outlet = 142.24, sigma_outlet = 3.3628E7, rho_outlet = 2444.8, Cp_outlet_sleeve = 918.69, k_outlet_sleeve = 176.38, sigma_outlet_sleeve = 3.4121E7, rho_outlet_sleeve = 2194.3, Cp_inlet_sleeve = 880.4, k_inlet_sleeve = 147.2, sigma_inlet_sleeve = 4.3757E7, rho_inlet_sleeve = 2406.7) (degC), Point: 138Temperature (Cp_Al = 905.34, k_Al = 138.78, sigma_Al = 3.9064E7, rho_Al = 2722.5, Cp_inlet = 1014.8, k_inlet = 160.26, sigma_inlet = 3.0924E7, rho_inlet = 2207.1, Cp_outlet = 806.47, k_outlet = 142.24, sigma_outlet = 3.3628E7, rho_outlet = 2444.8, Cp_outlet_sleeve = 918.69, k_outlet_sleeve = 176.38, sigma_outlet_sleeve = 3.4121E7, rho_outlet_sleeve = 2194.3, Cp_inlet_sleeve = 880.4, k_inlet_sleeve = 147.2, sigma_inlet_sleeve = 4.3757E7, rho_inlet_sleeve = 2406.7) (degC), Point: 151Temperature (Cp_Al = 905.34, k_Al = 138.78, sigma_Al = 3.9064E7, rho_Al = 2722.5, Cp_inlet = 1014.8, k_inlet = 160.26, sigma_inlet = 3.0924E7, rho_inlet = 2207.1, Cp_outlet = 806.47, k_outlet = 142.24, sigma_outlet = 3.3628E7, rho_outlet = 2444.8, Cp_outlet_sleeve = 918.69, k_outlet_sleeve = 176.38, sigma_outlet_sleeve = 3.4121E7, rho_outlet_sleeve = 2194.3, Cp_inlet_sleeve = 880.4, k_inlet_sleeve = 147.2, sigma_inlet_sleeve = 4.3757E7, rho_inlet_sleeve = 2406.7) (degC), Point: 154Temperature (Cp_Al = 905.34, k_Al = 138.78, sigma_Al = 3.9064E7, rho_Al = 2722.5, Cp_inlet = 1014.8, k_inlet = 160.26, sigma_inlet = 3.0924E7, rho_inlet = 2207.1, Cp_outlet = 806.47, k_outlet = 142.24, sigma_outlet = 3.3628E7, rho_outlet = 2444.8, Cp_outlet_sleeve = 918.69, k_outlet_sleeve = 176.38, sigma_outlet_sleeve = 3.4121E7, rho_outlet_sleeve = 2194.3, Cp_inlet_sleeve = 880.4, k_inlet_sleeve = 147.2, sigma_inlet_sleeve = 4.3757E7, rho_inlet_sleeve = 2406.7) (degC), Point: 159Temperature (Cp_Al = 905.34, k_Al = 138.78, sigma_Al = 3.9064E7, rho_Al = 2722.5, Cp_inlet = 1014.8, k_inlet = 160.26, sigma_inlet = 3.0924E7, rho_inlet = 2207.1, Cp_outlet = 806.47, k_outlet = 142.24, sigma_outlet = 3.3628E7, rho_outlet = 2444.8, Cp_outlet_sleeve = 918.69, k_outlet_sleeve = 176.38, sigma_outlet_sleeve = 3.4121E7, rho_outlet_sleeve = 2194.3, Cp_inlet_sleeve = 880.4, k_inlet_sleeve = 147.2, sigma_inlet_sleeve = 4.3757E7, rho_inlet_sleeve = 2406.7) (degC), Point: 163Temperature (Cp_Al = 905.34, k_Al = 138.78, sigma_Al = 3.9064E7, rho_Al = 2722.5, Cp_inlet = 1014.8, k_inlet = 160.26, sigma_inlet = 3.0924E7, rho_inlet = 2207.1, Cp_outlet = 806.47, k_outlet = 142.24, sigma_outlet = 3.3628E7, rho_outlet = 2444.8, Cp_outlet_sleeve = 918.69, k_outlet_sleeve = 176.38, sigma_outlet_sleeve = 3.4121E7, rho_outlet_sleeve = 2194.3, Cp_inlet_sleeve = 880.4, k_inlet_sleeve = 147.2, sigma_inlet_sleeve = 4.3757E7, rho_inlet_sleeve = 2406.7) (degC), Point: 167Temperature (Cp_Al = 905.34, k_Al = 138.78, sigma_Al = 3.9064E7, rho_Al = 2722.5, Cp_inlet = 1014.8, k_inlet = 160.26, sigma_inlet = 3.0924E7, rho_inlet = 2207.1, Cp_outlet = 806.47, k_outlet = 142.24, sigma_outlet = 3.3628E7, rho_outlet = 2444.8, Cp_outlet_sleeve = 918.69, k_outlet_sleeve = 176.38, sigma_outlet_sleeve = 3.4121E7, rho_outlet_sleeve = 2194.3, Cp_inlet_sleeve = 880.4, k_inlet_sleeve = 147.2, sigma_inlet_sleeve = 4.3757E7, rho_inlet_sleeve = 2406.7) (degC), Point: 168Temperature (Cp_Al = 905.34, k_Al = 138.78, sigma_Al = 3.9064E7, rho_Al = 2722.5, Cp_inlet = 1014.8, k_inlet = 160.26, sigma_inlet = 3.0924E7, rho_inlet = 2207.1, Cp_outlet = 806.47, k_outlet = 142.24, sigma_outlet = 3.3628E7, rho_outlet = 2444.8, Cp_outlet_sleeve = 918.69, k_outlet_sleeve = 176.38, sigma_outlet_sleeve = 3.4121E7, rho_outlet_sleeve = 2194.3, Cp_inlet_sleeve = 880.4, k_inlet_sleeve = 147.2, sigma_inlet_sleeve = 4.3757E7, rho_inlet_sleeve = 2406.7) (degC), Point: 172Temperature (Cp_Al = 905.34, k_Al = 138.78, sigma_Al = 3.9064E7, rho_Al = 2722.5, Cp_inlet = 1014.8, k_inlet = 160.26, sigma_inlet = 3.0924E7, rho_inlet = 2207.1, Cp_outlet = 806.47, k_outlet = 142.24, sigma_outlet = 3.3628E7, rho_outlet = 2444.8, Cp_outlet_sleeve = 918.69, k_outlet_sleeve = 176.38, sigma_outlet_sleeve = 3.4121E7, rho_outlet_sleeve = 2194.3, Cp_inlet_sleeve = 880.4, k_inlet_sleeve = 147.2, sigma_inlet_sleeve = 4.3757E7, rho_inlet_sleeve = 2406.7) (degC), Point: 181Temperature (Cp_Al = 905.34, k_Al = 138.78, sigma_Al = 3.9064E7, rho_Al = 2722.5, Cp_inlet = 1014.8, k_inlet = 160.26, sigma_inlet = 3.0924E7, rho_inlet = 2207.1, Cp_outlet = 806.47, k_outlet = 142.24, sigma_outlet = 3.3628E7, rho_outlet = 2444.8, Cp_outlet_sleeve = 918.69, k_outlet_sleeve = 176.38, sigma_outlet_sleeve = 3.4121E7, rho_outlet_sleeve = 2194.3, Cp_inlet_sleeve = 880.4, k_inlet_sleeve = 147.2, sigma_inlet_sleeve = 4.3757E7, rho_inlet_sleeve = 2406.7) (degC), Point: 201Temperature (Cp_Al = 905.34, k_Al = 138.78, sigma_Al = 3.9064E7, rho_Al = 2722.5, Cp_inlet = 1014.8, k_inlet = 160.26, sigma_inlet = 3.0924E7, rho_inlet = 2207.1, Cp_outlet = 806.47, k_outlet = 142.24, sigma_outlet = 3.3628E7, rho_outlet = 2444.8, Cp_outlet_sleeve = 918.69, k_outlet_sleeve = 176.38, sigma_outlet_sleeve = 3.4121E7, rho_outlet_sleeve = 2194.3, Cp_inlet_sleeve = 880.4, k_inlet_sleeve = 147.2, sigma_inlet_sleeve = 4.3757E7, rho_inlet_sleeve = 2406.7) (degC), Point: 210Temperature (Cp_Al = 905.34, k_Al = 138.78, sigma_Al = 3.9064E7, rho_Al = 2722.5, Cp_inlet = 1014.8, k_inlet = 160.26, sigma_inlet = 3.0924E7, rho_inlet = 2207.1, Cp_outlet = 806.47, k_outlet = 142.24, sigma_outlet = 3.3628E7, rho_outlet = 2444.8, Cp_outlet_sleeve = 918.69, k_outlet_sleeve = 176.38, sigma_outlet_sleeve = 3.4121E7, rho_outlet_sleeve = 2194.3, Cp_inlet_sleeve = 880.4, k_inlet_sleeve = 147.2, sigma_inlet_sleeve = 4.3757E7, rho_inlet_sleeve = 2406.7) (degC), Point: 213Temperature (Cp_Al = 905.34, k_Al = 138.78, sigma_Al = 3.9064E7, rho_Al = 2722.5, Cp_inlet = 1014.8, k_inlet = 160.26, sigma_inlet = 3.0924E7, rho_inlet = 2207.1, Cp_outlet = 806.47, k_outlet = 142.24, sigma_outlet = 3.3628E7, rho_outlet = 2444.8, Cp_outlet_sleeve = 918.69, k_outlet_sleeve = 176.38, sigma_outlet_sleeve = 3.4121E7, rho_outlet_sleeve = 2194.3, Cp_inlet_sleeve = 880.4, k_inlet_sleeve = 147.2, sigma_inlet_sleeve = 4.3757E7, rho_inlet_sleeve = 2406.7) (degC), Point: 215Temperature (Cp_Al = 905.34, k_Al = 138.78, sigma_Al = 3.9064E7, rho_Al = 2722.5, Cp_inlet = 1014.8, k_inlet = 160.26, sigma_inlet = 3.0924E7, rho_inlet = 2207.1, Cp_outlet = 806.47, k_outlet = 142.24, sigma_outlet = 3.3628E7, rho_outlet = 2444.8, Cp_outlet_sleeve = 918.69, k_outlet_sleeve = 176.38, sigma_outlet_sleeve = 3.4121E7, rho_outlet_sleeve = 2194.3, Cp_inlet_sleeve = 880.4, k_inlet_sleeve = 147.2, sigma_inlet_sleeve = 4.3757E7, rho_inlet_sleeve = 2406.7) (degC), Point: 229Temperature (Cp_Al = 905.34, k_Al = 138.78, sigma_Al = 3.9064E7, rho_Al = 2722.5, Cp_inlet = 1014.8, k_inlet = 160.26, sigma_inlet = 3.0924E7, rho_inlet = 2207.1, Cp_outlet = 806.47, k_outlet = 142.24, sigma_outlet = 3.3628E7, rho_outlet = 2444.8, Cp_outlet_sleeve = 918.69, k_outlet_sleeve = 176.38, sigma_outlet_sleeve = 3.4121E7, rho_outlet_sleeve = 2194.3, Cp_inlet_sleeve = 880.4, k_inlet_sleeve = 147.2, sigma_inlet_sleeve = 4.3757E7, rho_inlet_sleeve = 2406.7) (degC), Point: 232Temperature (Cp_Al = 905.34, k_Al = 138.78, sigma_Al = 3.9064E7, rho_Al = 2722.5, Cp_inlet = 1014.8, k_inlet = 160.26, sigma_inlet = 3.0924E7, rho_inlet = 2207.1, Cp_outlet = 806.47, k_outlet = 142.24, sigma_outlet = 3.3628E7, rho_outlet = 2444.8, Cp_outlet_sleeve = 918.69, k_outlet_sleeve = 176.38, sigma_outlet_sleeve = 3.4121E7, rho_outlet_sleeve = 2194.3, Cp_inlet_sleeve = 880.4, k_inlet_sleeve = 147.2, sigma_inlet_sleeve = 4.3757E7, rho_inlet_sleeve = 2406.7) (degC), Point: 239Temperature (Cp_Al = 905.34, k_Al = 138.78, sigma_Al = 3.9064E7, rho_Al = 2722.5, Cp_inlet = 1014.8, k_inlet = 160.26, sigma_inlet = 3.0924E7, rho_inlet = 2207.1, Cp_outlet = 806.47, k_outlet = 142.24, sigma_outlet = 3.3628E7, rho_outlet = 2444.8, Cp_outlet_sleeve = 918.69, k_outlet_sleeve = 176.38, sigma_outlet_sleeve = 3.4121E7, rho_outlet_sleeve = 2194.3, Cp_inlet_sleeve = 880.4, k_inlet_sleeve = 147.2, sigma_inlet_sleeve = 4.3757E7, rho_inlet_sleeve = 2406.7) (degC), Point: 252Temperature (Cp_Al = 905.34, k_Al = 138.78, sigma_Al = 3.9064E7, rho_Al = 2722.5, Cp_inlet = 1014.8, k_inlet = 160.26, sigma_inlet = 3.0924E7, rho_inlet = 2207.1, Cp_outlet = 806.47, k_outlet = 142.24, sigma_outlet = 3.3628E7, rho_outlet = 2444.8, Cp_outlet_sleeve = 918.69, k_outlet_sleeve = 176.38, sigma_outlet_sleeve = 3.4121E7, rho_outlet_sleeve = 2194.3, Cp_inlet_sleeve = 880.4, k_inlet_sleeve = 147.2, sigma_inlet_sleeve = 4.3757E7, rho_inlet_sleeve = 2406.7) (degC), Point: 261Temperature (Cp_Al = 905.34, k_Al = 138.78, sigma_Al = 3.9064E7, rho_Al = 2722.5, Cp_inlet = 1014.8, k_inlet = 160.26, sigma_inlet = 3.0924E7, rho_inlet = 2207.1, Cp_outlet = 806.47, k_outlet = 142.24, sigma_outlet = 3.3628E7, rho_outlet = 2444.8, Cp_outlet_sleeve = 918.69, k_outlet_sleeve = 176.38, sigma_outlet_sleeve = 3.4121E7, rho_outlet_sleeve = 2194.3, Cp_inlet_sleeve = 880.4, k_inlet_sleeve = 147.2, sigma_inlet_sleeve = 4.3757E7, rho_inlet_sleeve = 2406.7) (degC), Point: 270Temperature (Cp_Al = 905.34, k_Al = 138.78, sigma_Al = 3.9064E7, rho_Al = 2722.5, Cp_inlet = 1014.8, k_inlet = 160.26, sigma_inlet = 3.0924E7, rho_inlet = 2207.1, Cp_outlet = 806.47, k_outlet = 142.24, sigma_outlet = 3.3628E7, rho_outlet = 2444.8, Cp_outlet_sleeve = 918.69, k_outlet_sleeve = 176.38, sigma_outlet_sleeve = 3.4121E7, rho_outlet_sleeve = 2194.3, Cp_inlet_sleeve = 880.4, k_inlet_sleeve = 147.2, sigma_inlet_sleeve = 4.3757E7, rho_inlet_sleeve = 2406.7) (degC), Point: 273Temperature (Cp_Al = 905.34, k_Al = 138.78, sigma_Al = 3.9064E7, rho_Al = 2722.5, Cp_inlet = 1014.8, k_inlet = 160.26, sigma_inlet = 3.0924E7, rho_inlet = 2207.1, Cp_outlet = 806.47, k_outlet = 142.24, sigma_outlet = 3.3628E7, rho_outlet = 2444.8, Cp_outlet_sleeve = 918.69, k_outlet_sleeve = 176.38, sigma_outlet_sleeve = 3.4121E7, rho_outlet_sleeve = 2194.3, Cp_inlet_sleeve = 880.4, k_inlet_sleeve = 147.2, sigma_inlet_sleeve = 4.3757E7, rho_inlet_sleeve = 2406.7) (degC), Point: 275
0                        21.660191209670586       21.01372474376359        21.133719396582933       21.009525857829544       21.015242129039848       21.108566112114033       21.00892377206617        21.030456228926823       21.00156890610947        21.02471630718054        21.00124502604382        21.0006416040747         21.00948124882342        21.000116294060376       21.008970589501473       21.02182111494801        21.000055009850655       21.011728404236123       21.000795295846046       21.00031637566542        21.001792250779772       21.000177603958377       21.00027273405277        21.008893566695065       21.119082379823226       21.014620501913157       21.636675617085075       21.00942868278804        21.146814872922107       21.016843873406344       21.734253707131018
3                        320.18872019559535       288.1102334404259        300.1711087843296        296.3074566744119        274.6419290354314        287.0366112333061        285.2178863894072        273.9491034409846        268.80673423167616       279.62995143355477       281.57806129340236       273.3291705002159        270.7514323891339        258.17632304928725       263.28401944027235       255.71838362764163       250.92715450860806       261.35308486092515       263.4121647885147        256.73503798743786       255.34962568508888       247.58949126581967       250.68880379630025       287.2487533847627        289.51499003661786       276.26229124347196       312.2359513470386        297.79934624724615       301.8873220308519        287.11172850494677       323.80580761349836
6                        444.939679615062         411.3099737638629        427.5883674403891        424.6332409677525        402.05652358750683       419.60924163990705       418.8756520504535        403.2780853544858        396.0620601074378        412.09896980944313       415.1378252012281        406.8734700450261        403.2092783285592        385.4147719612072        392.5837474342376        379.0040535936215        372.5826459995378        387.43752627235506       390.44897387121785       383.88451785496943       381.61561618529686       369.6330215952695        374.29772387348885       420.70522170931827       421.85921600173515       403.33939307519563       441.40351930781617       423.5685066305507        426.7251983443439        407.4657905462834        445.83231425371173
9                        516.2164720997578        481.71887551731834       500.7821543094259        498.6343217750974        474.2957863147976        495.2572967973475        495.455644176594         476.5957872061332        468.20332078650915       487.6881140823958        491.6628884900739        483.39138921138726       478.7923406945283        457.5465197232984        465.881094489422         449.3289781745774        441.989106041731         459.7709061364541        463.6233341708064        457.2351382810814        454.15762441292713       439.34733934905955       444.89795455030094       497.1773123767862        497.3751784304711        475.3714803311609        514.6214337285708        496.06480637459936       498.37777172634674       476.11878670057524       515.438866348175
12                       565.0593631760278        529.9856477015492        551.0419551494197        549.5319603904699        523.3016903143634        546.6356261545712        547.54355245612          526.3013029264209        517.1457324183547        539.0293124446747        543.7164233951952        535.4433117261053        530.1319500091934        506.4835641226431        515.5737570970741        497.6104852866109        489.6613396476073        509.5322141283932        514.0468917818035        507.7674340421204        504.0403250898539        487.1858420038892        493.3286853946273        549.2018972191265        548.6715217459497        524.243841494706         564.2629172113109        546.1062151730031        547.7439834108397        523.3243888309083        563.2812041526431
15                       601.5927747933599        566.1055910364721        588.6730715528045        587.677948196177         559.5495851896018        584.6122291701852        586.0672906505747        563.0351162351993        553.3511888180824        576.9817832319499        582.2179734552265        573.9460708211457        568.0852552513231        542.6864293966424        552.2995352237839        533.7931325045699        525.408056242189         546.8573127568519        551.9050618227152        545.719216839791         541.4618861740906        523.0460750446117        529.6160359556156        587.6879458454857        586.596009587838         560.4033906967653        600.9547116832267        583.7599179850514        584.8482570995785        558.7853119825753        599.1997922850563
18                       630.9116174840755        595.108440797531         618.8814076412874        618.3154196221202        588.3019252124559        614.6897510036098        616.5823965167971        592.1460837751231        582.0740511730517        607.0430576656902        612.718244355702         604.4488537410849        598.1485143676155        571.4083212785235        581.4053186419219        562.8800195380852        554.1629641893169        576.8671296725178        582.3581809693145        576.2575782062538        571.5553211311434        551.8885624106953        558.7857635639523        618.1803060478602        616.6393026057813        589.0951338211321        630.0370799834197        614.1074403698134        614.7358428400397        587.3612611479884        628.1250225470645
21                       655.8816324196202        619.8238010261572        644.5967352572171        644.396543465689         612.5533204587009        640.0069394940808        642.2620445055094        616.6783388994378        606.3041848753766        632.3489004486423        638.3875984594613        630.121304193937         623.4568955525677        595.6384880083657        605.9341662640406        587.6878937578156        578.7043079881053        602.4462518034219        608.3144459854627        602.2915854968122        597.2088012118371        576.5026341054382        583.6635679480436        643.8461354167146        641.9332761772479        613.3035078358932        654.5491905224852        640.0123138164494        640.248143249919         611.7874454547282        652.8315541854149
24                       678.0985379478785        641.8277480640147        667.4516972094858        667.5676266981848        634.0083102293593        662.3540965886025        664.918526783326         638.3645496658379        627.7433228948939        654.6878755354389        661.0366961105636        652.7736664619902        645.7985991968385        617.0782268413758        627.6180509357296        609.7855265547369        600.5798455313789        625.2026169158464        631.3961946840602        625.4434893429377        620.0315018842282        598.4409254600563        605.8220590085781        666.4942572929855        664.2641972166994        634.7269617495017        676.2207219047768        663.0719326509588        662.9687207325859        633.5865715193946        674.8638547697644
27                       698.4225701949629        661.9702400796456        688.3273148703046        688.7178744025144        653.6106438495874        682.7230780350831        685.5566395887081        658.1636314516766        647.3335569434498        675.0508245021061        681.6693871068723        673.4095589018441        666.1642542918312        636.6693406044908        647.4154634360476        630.0185663787399        620.624151797092         646.0040036069065        652.4798546331588        646.5897228409902        640.8917642294946        618.5401031047568        626.1085315448594        687.1274686982293        684.6215659933307        654.3056153555617        696.0088104191923        684.149460332376         683.7521603553769        653.5789895507795        695.0539366445199
