% Model:              brazing.mph
% Version:            COMSOL 5.3.0.223
% Date:               Oct 24 2018, 04:47
% Table:              Table 3 - 
% Time (s)               Temperature (Cp_Al = 484.25, k_Al = 95.864, sigma_Al = 6.1155E7, rho_Al = 3522.5, Cp_inlet = 1015.3, k_inlet = 209.93, sigma_inlet = 2.3716E7, rho_inlet = 1297.6, Cp_outlet = 941.32, k_outlet = 80.352, sigma_outlet = 5.5936E7, rho_outlet = 2367.3, Cp_outlet_sleeve = 434.75, k_outlet_sleeve = 181.88, sigma_outlet_sleeve = 2.6879E7, rho_outlet_sleeve = 3306, Cp_inlet_sleeve = 784.61, k_inlet_sleeve = 145.76, sigma_inlet_sleeve = 4.989E7, rho_inlet_sleeve = 2305.9) (degC), Point: 55Temperature (Cp_Al = 484.25, k_Al = 95.864, sigma_Al = 6.1155E7, rho_Al = 3522.5, Cp_inlet = 1015.3, k_inlet = 209.93, sigma_inlet = 2.3716E7, rho_inlet = 1297.6, Cp_outlet = 941.32, k_outlet = 80.352, sigma_outlet = 5.5936E7, rho_outlet = 2367.3, Cp_outlet_sleeve = 434.75, k_outlet_sleeve = 181.88, sigma_outlet_sleeve = 2.6879E7, rho_outlet_sleeve = 3306, Cp_inlet_sleeve = 784.61, k_inlet_sleeve = 145.76, sigma_inlet_sleeve = 4.989E7, rho_inlet_sleeve = 2305.9) (degC), Point: 56Temperature (Cp_Al = 484.25, k_Al = 95.864, sigma_Al = 6.1155E7, rho_Al = 3522.5, Cp_inlet = 1015.3, k_inlet = 209.93, sigma_inlet = 2.3716E7, rho_inlet = 1297.6, Cp_outlet = 941.32, k_outlet = 80.352, sigma_outlet = 5.5936E7, rho_outlet = 2367.3, Cp_outlet_sleeve = 434.75, k_outlet_sleeve = 181.88, sigma_outlet_sleeve = 2.6879E7, rho_outlet_sleeve = 3306, Cp_inlet_sleeve = 784.61, k_inlet_sleeve = 145.76, sigma_inlet_sleeve = 4.989E7, rho_inlet_sleeve = 2305.9) (degC), Point: 60Temperature (Cp_Al = 484.25, k_Al = 95.864, sigma_Al = 6.1155E7, rho_Al = 3522.5, Cp_inlet = 1015.3, k_inlet = 209.93, sigma_inlet = 2.3716E7, rho_inlet = 1297.6, Cp_outlet = 941.32, k_outlet = 80.352, sigma_outlet = 5.5936E7, rho_outlet = 2367.3, Cp_outlet_sleeve = 434.75, k_outlet_sleeve = 181.88, sigma_outlet_sleeve = 2.6879E7, rho_outlet_sleeve = 3306, Cp_inlet_sleeve = 784.61, k_inlet_sleeve = 145.76, sigma_inlet_sleeve = 4.989E7, rho_inlet_sleeve = 2305.9) (degC), Point: 69Temperature (Cp_Al = 484.25, k_Al = 95.864, sigma_Al = 6.1155E7, rho_Al = 3522.5, Cp_inlet = 1015.3, k_inlet = 209.93, sigma_inlet = 2.3716E7, rho_inlet = 1297.6, Cp_outlet = 941.32, k_outlet = 80.352, sigma_outlet = 5.5936E7, rho_outlet = 2367.3, Cp_outlet_sleeve = 434.75, k_outlet_sleeve = 181.88, sigma_outlet_sleeve = 2.6879E7, rho_outlet_sleeve = 3306, Cp_inlet_sleeve = 784.61, k_inlet_sleeve = 145.76, sigma_inlet_sleeve = 4.989E7, rho_inlet_sleeve = 2305.9) (degC), Point: 90Temperature (Cp_Al = 484.25, k_Al = 95.864, sigma_Al = 6.1155E7, rho_Al = 3522.5, Cp_inlet = 1015.3, k_inlet = 209.93, sigma_inlet = 2.3716E7, rho_inlet = 1297.6, Cp_outlet = 941.32, k_outlet = 80.352, sigma_outlet = 5.5936E7, rho_outlet = 2367.3, Cp_outlet_sleeve = 434.75, k_outlet_sleeve = 181.88, sigma_outlet_sleeve = 2.6879E7, rho_outlet_sleeve = 3306, Cp_inlet_sleeve = 784.61, k_inlet_sleeve = 145.76, sigma_inlet_sleeve = 4.989E7, rho_inlet_sleeve = 2305.9) (degC), Point: 98Temperature (Cp_Al = 484.25, k_Al = 95.864, sigma_Al = 6.1155E7, rho_Al = 3522.5, Cp_inlet = 1015.3, k_inlet = 209.93, sigma_inlet = 2.3716E7, rho_inlet = 1297.6, Cp_outlet = 941.32, k_outlet = 80.352, sigma_outlet = 5.5936E7, rho_outlet = 2367.3, Cp_outlet_sleeve = 434.75, k_outlet_sleeve = 181.88, sigma_outlet_sleeve = 2.6879E7, rho_outlet_sleeve = 3306, Cp_inlet_sleeve = 784.61, k_inlet_sleeve = 145.76, sigma_inlet_sleeve = 4.989E7, rho_inlet_sleeve = 2305.9) (degC), Point: 102Temperature (Cp_Al = 484.25, k_Al = 95.864, sigma_Al = 6.1155E7, rho_Al = 3522.5, Cp_inlet = 1015.3, k_inlet = 209.93, sigma_inlet = 2.3716E7, rho_inlet = 1297.6, Cp_outlet = 941.32, k_outlet = 80.352, sigma_outlet = 5.5936E7, rho_outlet = 2367.3, Cp_outlet_sleeve = 434.75, k_outlet_sleeve = 181.88, sigma_outlet_sleeve = 2.6879E7, rho_outlet_sleeve = 3306, Cp_inlet_sleeve = 784.61, k_inlet_sleeve = 145.76, sigma_inlet_sleeve = 4.989E7, rho_inlet_sleeve = 2305.9) (degC), Point: 127Temperature (Cp_Al = 484.25, k_Al = 95.864, sigma_Al = 6.1155E7, rho_Al = 3522.5, Cp_inlet = 1015.3, k_inlet = 209.93, sigma_inlet = 2.3716E7, rho_inlet = 1297.6, Cp_outlet = 941.32, k_outlet = 80.352, sigma_outlet = 5.5936E7, rho_outlet = 2367.3, Cp_outlet_sleeve = 434.75, k_outlet_sleeve = 181.88, sigma_outlet_sleeve = 2.6879E7, rho_outlet_sleeve = 3306, Cp_inlet_sleeve = 784.61, k_inlet_sleeve = 145.76, sigma_inlet_sleeve = 4.989E7, rho_inlet_sleeve = 2305.9) (degC), Point: 128Temperature (Cp_Al = 484.25, k_Al = 95.864, sigma_Al = 6.1155E7, rho_Al = 3522.5, Cp_inlet = 1015.3, k_inlet = 209.93, sigma_inlet = 2.3716E7, rho_inlet = 1297.6, Cp_outlet = 941.32, k_outlet = 80.352, sigma_outlet = 5.5936E7, rho_outlet = 2367.3, Cp_outlet_sleeve = 434.75, k_outlet_sleeve = 181.88, sigma_outlet_sleeve = 2.6879E7, rho_outlet_sleeve = 3306, Cp_inlet_sleeve = 784.61, k_inlet_sleeve = 145.76, sigma_inlet_sleeve = 4.989E7, rho_inlet_sleeve = 2305.9) (degC), Point: 134Temperature (Cp_Al = 484.25, k_Al = 95.864, sigma_Al = 6.1155E7, rho_Al = 3522.5, Cp_inlet = 1015.3, k_inlet = 209.93, sigma_inlet = 2.3716E7, rho_inlet = 1297.6, Cp_outlet = 941.32, k_outlet = 80.352, sigma_outlet = 5.5936E7, rho_outlet = 2367.3, Cp_outlet_sleeve = 434.75, k_outlet_sleeve = 181.88, sigma_outlet_sleeve = 2.6879E7, rho_outlet_sleeve = 3306, Cp_inlet_sleeve = 784.61, k_inlet_sleeve = 145.76, sigma_inlet_sleeve = 4.989E7, rho_inlet_sleeve = 2305.9) (degC), Point: 138Temperature (Cp_Al = 484.25, k_Al = 95.864, sigma_Al = 6.1155E7, rho_Al = 3522.5, Cp_inlet = 1015.3, k_inlet = 209.93, sigma_inlet = 2.3716E7, rho_inlet = 1297.6, Cp_outlet = 941.32, k_outlet = 80.352, sigma_outlet = 5.5936E7, rho_outlet = 2367.3, Cp_outlet_sleeve = 434.75, k_outlet_sleeve = 181.88, sigma_outlet_sleeve = 2.6879E7, rho_outlet_sleeve = 3306, Cp_inlet_sleeve = 784.61, k_inlet_sleeve = 145.76, sigma_inlet_sleeve = 4.989E7, rho_inlet_sleeve = 2305.9) (degC), Point: 151Temperature (Cp_Al = 484.25, k_Al = 95.864, sigma_Al = 6.1155E7, rho_Al = 3522.5, Cp_inlet = 1015.3, k_inlet = 209.93, sigma_inlet = 2.3716E7, rho_inlet = 1297.6, Cp_outlet = 941.32, k_outlet = 80.352, sigma_outlet = 5.5936E7, rho_outlet = 2367.3, Cp_outlet_sleeve = 434.75, k_outlet_sleeve = 181.88, sigma_outlet_sleeve = 2.6879E7, rho_outlet_sleeve = 3306, Cp_inlet_sleeve = 784.61, k_inlet_sleeve = 145.76, sigma_inlet_sleeve = 4.989E7, rho_inlet_sleeve = 2305.9) (degC), Point: 154Temperature (Cp_Al = 484.25, k_Al = 95.864, sigma_Al = 6.1155E7, rho_Al = 3522.5, Cp_inlet = 1015.3, k_inlet = 209.93, sigma_inlet = 2.3716E7, rho_inlet = 1297.6, Cp_outlet = 941.32, k_outlet = 80.352, sigma_outlet = 5.5936E7, rho_outlet = 2367.3, Cp_outlet_sleeve = 434.75, k_outlet_sleeve = 181.88, sigma_outlet_sleeve = 2.6879E7, rho_outlet_sleeve = 3306, Cp_inlet_sleeve = 784.61, k_inlet_sleeve = 145.76, sigma_inlet_sleeve = 4.989E7, rho_inlet_sleeve = 2305.9) (degC), Point: 159Temperature (Cp_Al = 484.25, k_Al = 95.864, sigma_Al = 6.1155E7, rho_Al = 3522.5, Cp_inlet = 1015.3, k_inlet = 209.93, sigma_inlet = 2.3716E7, rho_inlet = 1297.6, Cp_outlet = 941.32, k_outlet = 80.352, sigma_outlet = 5.5936E7, rho_outlet = 2367.3, Cp_outlet_sleeve = 434.75, k_outlet_sleeve = 181.88, sigma_outlet_sleeve = 2.6879E7, rho_outlet_sleeve = 3306, Cp_inlet_sleeve = 784.61, k_inlet_sleeve = 145.76, sigma_inlet_sleeve = 4.989E7, rho_inlet_sleeve = 2305.9) (degC), Point: 163Temperature (Cp_Al = 484.25, k_Al = 95.864, sigma_Al = 6.1155E7, rho_Al = 3522.5, Cp_inlet = 1015.3, k_inlet = 209.93, sigma_inlet = 2.3716E7, rho_inlet = 1297.6, Cp_outlet = 941.32, k_outlet = 80.352, sigma_outlet = 5.5936E7, rho_outlet = 2367.3, Cp_outlet_sleeve = 434.75, k_outlet_sleeve = 181.88, sigma_outlet_sleeve = 2.6879E7, rho_outlet_sleeve = 3306, Cp_inlet_sleeve = 784.61, k_inlet_sleeve = 145.76, sigma_inlet_sleeve = 4.989E7, rho_inlet_sleeve = 2305.9) (degC), Point: 167Temperature (Cp_Al = 484.25, k_Al = 95.864, sigma_Al = 6.1155E7, rho_Al = 3522.5, Cp_inlet = 1015.3, k_inlet = 209.93, sigma_inlet = 2.3716E7, rho_inlet = 1297.6, Cp_outlet = 941.32, k_outlet = 80.352, sigma_outlet = 5.5936E7, rho_outlet = 2367.3, Cp_outlet_sleeve = 434.75, k_outlet_sleeve = 181.88, sigma_outlet_sleeve = 2.6879E7, rho_outlet_sleeve = 3306, Cp_inlet_sleeve = 784.61, k_inlet_sleeve = 145.76, sigma_inlet_sleeve = 4.989E7, rho_inlet_sleeve = 2305.9) (degC), Point: 168Temperature (Cp_Al = 484.25, k_Al = 95.864, sigma_Al = 6.1155E7, rho_Al = 3522.5, Cp_inlet = 1015.3, k_inlet = 209.93, sigma_inlet = 2.3716E7, rho_inlet = 1297.6, Cp_outlet = 941.32, k_outlet = 80.352, sigma_outlet = 5.5936E7, rho_outlet = 2367.3, Cp_outlet_sleeve = 434.75, k_outlet_sleeve = 181.88, sigma_outlet_sleeve = 2.6879E7, rho_outlet_sleeve = 3306, Cp_inlet_sleeve = 784.61, k_inlet_sleeve = 145.76, sigma_inlet_sleeve = 4.989E7, rho_inlet_sleeve = 2305.9) (degC), Point: 172Temperature (Cp_Al = 484.25, k_Al = 95.864, sigma_Al = 6.1155E7, rho_Al = 3522.5, Cp_inlet = 1015.3, k_inlet = 209.93, sigma_inlet = 2.3716E7, rho_inlet = 1297.6, Cp_outlet = 941.32, k_outlet = 80.352, sigma_outlet = 5.5936E7, rho_outlet = 2367.3, Cp_outlet_sleeve = 434.75, k_outlet_sleeve = 181.88, sigma_outlet_sleeve = 2.6879E7, rho_outlet_sleeve = 3306, Cp_inlet_sleeve = 784.61, k_inlet_sleeve = 145.76, sigma_inlet_sleeve = 4.989E7, rho_inlet_sleeve = 2305.9) (degC), Point: 181Temperature (Cp_Al = 484.25, k_Al = 95.864, sigma_Al = 6.1155E7, rho_Al = 3522.5, Cp_inlet = 1015.3, k_inlet = 209.93, sigma_inlet = 2.3716E7, rho_inlet = 1297.6, Cp_outlet = 941.32, k_outlet = 80.352, sigma_outlet = 5.5936E7, rho_outlet = 2367.3, Cp_outlet_sleeve = 434.75, k_outlet_sleeve = 181.88, sigma_outlet_sleeve = 2.6879E7, rho_outlet_sleeve = 3306, Cp_inlet_sleeve = 784.61, k_inlet_sleeve = 145.76, sigma_inlet_sleeve = 4.989E7, rho_inlet_sleeve = 2305.9) (degC), Point: 201Temperature (Cp_Al = 484.25, k_Al = 95.864, sigma_Al = 6.1155E7, rho_Al = 3522.5, Cp_inlet = 1015.3, k_inlet = 209.93, sigma_inlet = 2.3716E7, rho_inlet = 1297.6, Cp_outlet = 941.32, k_outlet = 80.352, sigma_outlet = 5.5936E7, rho_outlet = 2367.3, Cp_outlet_sleeve = 434.75, k_outlet_sleeve = 181.88, sigma_outlet_sleeve = 2.6879E7, rho_outlet_sleeve = 3306, Cp_inlet_sleeve = 784.61, k_inlet_sleeve = 145.76, sigma_inlet_sleeve = 4.989E7, rho_inlet_sleeve = 2305.9) (degC), Point: 210Temperature (Cp_Al = 484.25, k_Al = 95.864, sigma_Al = 6.1155E7, rho_Al = 3522.5, Cp_inlet = 1015.3, k_inlet = 209.93, sigma_inlet = 2.3716E7, rho_inlet = 1297.6, Cp_outlet = 941.32, k_outlet = 80.352, sigma_outlet = 5.5936E7, rho_outlet = 2367.3, Cp_outlet_sleeve = 434.75, k_outlet_sleeve = 181.88, sigma_outlet_sleeve = 2.6879E7, rho_outlet_sleeve = 3306, Cp_inlet_sleeve = 784.61, k_inlet_sleeve = 145.76, sigma_inlet_sleeve = 4.989E7, rho_inlet_sleeve = 2305.9) (degC), Point: 213Temperature (Cp_Al = 484.25, k_Al = 95.864, sigma_Al = 6.1155E7, rho_Al = 3522.5, Cp_inlet = 1015.3, k_inlet = 209.93, sigma_inlet = 2.3716E7, rho_inlet = 1297.6, Cp_outlet = 941.32, k_outlet = 80.352, sigma_outlet = 5.5936E7, rho_outlet = 2367.3, Cp_outlet_sleeve = 434.75, k_outlet_sleeve = 181.88, sigma_outlet_sleeve = 2.6879E7, rho_outlet_sleeve = 3306, Cp_inlet_sleeve = 784.61, k_inlet_sleeve = 145.76, sigma_inlet_sleeve = 4.989E7, rho_inlet_sleeve = 2305.9) (degC), Point: 215Temperature (Cp_Al = 484.25, k_Al = 95.864, sigma_Al = 6.1155E7, rho_Al = 3522.5, Cp_inlet = 1015.3, k_inlet = 209.93, sigma_inlet = 2.3716E7, rho_inlet = 1297.6, Cp_outlet = 941.32, k_outlet = 80.352, sigma_outlet = 5.5936E7, rho_outlet = 2367.3, Cp_outlet_sleeve = 434.75, k_outlet_sleeve = 181.88, sigma_outlet_sleeve = 2.6879E7, rho_outlet_sleeve = 3306, Cp_inlet_sleeve = 784.61, k_inlet_sleeve = 145.76, sigma_inlet_sleeve = 4.989E7, rho_inlet_sleeve = 2305.9) (degC), Point: 229Temperature (Cp_Al = 484.25, k_Al = 95.864, sigma_Al = 6.1155E7, rho_Al = 3522.5, Cp_inlet = 1015.3, k_inlet = 209.93, sigma_inlet = 2.3716E7, rho_inlet = 1297.6, Cp_outlet = 941.32, k_outlet = 80.352, sigma_outlet = 5.5936E7, rho_outlet = 2367.3, Cp_outlet_sleeve = 434.75, k_outlet_sleeve = 181.88, sigma_outlet_sleeve = 2.6879E7, rho_outlet_sleeve = 3306, Cp_inlet_sleeve = 784.61, k_inlet_sleeve = 145.76, sigma_inlet_sleeve = 4.989E7, rho_inlet_sleeve = 2305.9) (degC), Point: 232Temperature (Cp_Al = 484.25, k_Al = 95.864, sigma_Al = 6.1155E7, rho_Al = 3522.5, Cp_inlet = 1015.3, k_inlet = 209.93, sigma_inlet = 2.3716E7, rho_inlet = 1297.6, Cp_outlet = 941.32, k_outlet = 80.352, sigma_outlet = 5.5936E7, rho_outlet = 2367.3, Cp_outlet_sleeve = 434.75, k_outlet_sleeve = 181.88, sigma_outlet_sleeve = 2.6879E7, rho_outlet_sleeve = 3306, Cp_inlet_sleeve = 784.61, k_inlet_sleeve = 145.76, sigma_inlet_sleeve = 4.989E7, rho_inlet_sleeve = 2305.9) (degC), Point: 239Temperature (Cp_Al = 484.25, k_Al = 95.864, sigma_Al = 6.1155E7, rho_Al = 3522.5, Cp_inlet = 1015.3, k_inlet = 209.93, sigma_inlet = 2.3716E7, rho_inlet = 1297.6, Cp_outlet = 941.32, k_outlet = 80.352, sigma_outlet = 5.5936E7, rho_outlet = 2367.3, Cp_outlet_sleeve = 434.75, k_outlet_sleeve = 181.88, sigma_outlet_sleeve = 2.6879E7, rho_outlet_sleeve = 3306, Cp_inlet_sleeve = 784.61, k_inlet_sleeve = 145.76, sigma_inlet_sleeve = 4.989E7, rho_inlet_sleeve = 2305.9) (degC), Point: 252Temperature (Cp_Al = 484.25, k_Al = 95.864, sigma_Al = 6.1155E7, rho_Al = 3522.5, Cp_inlet = 1015.3, k_inlet = 209.93, sigma_inlet = 2.3716E7, rho_inlet = 1297.6, Cp_outlet = 941.32, k_outlet = 80.352, sigma_outlet = 5.5936E7, rho_outlet = 2367.3, Cp_outlet_sleeve = 434.75, k_outlet_sleeve = 181.88, sigma_outlet_sleeve = 2.6879E7, rho_outlet_sleeve = 3306, Cp_inlet_sleeve = 784.61, k_inlet_sleeve = 145.76, sigma_inlet_sleeve = 4.989E7, rho_inlet_sleeve = 2305.9) (degC), Point: 261Temperature (Cp_Al = 484.25, k_Al = 95.864, sigma_Al = 6.1155E7, rho_Al = 3522.5, Cp_inlet = 1015.3, k_inlet = 209.93, sigma_inlet = 2.3716E7, rho_inlet = 1297.6, Cp_outlet = 941.32, k_outlet = 80.352, sigma_outlet = 5.5936E7, rho_outlet = 2367.3, Cp_outlet_sleeve = 434.75, k_outlet_sleeve = 181.88, sigma_outlet_sleeve = 2.6879E7, rho_outlet_sleeve = 3306, Cp_inlet_sleeve = 784.61, k_inlet_sleeve = 145.76, sigma_inlet_sleeve = 4.989E7, rho_inlet_sleeve = 2305.9) (degC), Point: 270Temperature (Cp_Al = 484.25, k_Al = 95.864, sigma_Al = 6.1155E7, rho_Al = 3522.5, Cp_inlet = 1015.3, k_inlet = 209.93, sigma_inlet = 2.3716E7, rho_inlet = 1297.6, Cp_outlet = 941.32, k_outlet = 80.352, sigma_outlet = 5.5936E7, rho_outlet = 2367.3, Cp_outlet_sleeve = 434.75, k_outlet_sleeve = 181.88, sigma_outlet_sleeve = 2.6879E7, rho_outlet_sleeve = 3306, Cp_inlet_sleeve = 784.61, k_inlet_sleeve = 145.76, sigma_inlet_sleeve = 4.989E7, rho_inlet_sleeve = 2305.9) (degC), Point: 273Temperature (Cp_Al = 484.25, k_Al = 95.864, sigma_Al = 6.1155E7, rho_Al = 3522.5, Cp_inlet = 1015.3, k_inlet = 209.93, sigma_inlet = 2.3716E7, rho_inlet = 1297.6, Cp_outlet = 941.32, k_outlet = 80.352, sigma_outlet = 5.5936E7, rho_outlet = 2367.3, Cp_outlet_sleeve = 434.75, k_outlet_sleeve = 181.88, sigma_outlet_sleeve = 2.6879E7, rho_outlet_sleeve = 3306, Cp_inlet_sleeve = 784.61, k_inlet_sleeve = 145.76, sigma_inlet_sleeve = 4.989E7, rho_inlet_sleeve = 2305.9) (degC), Point: 275
0                        21.795204737381198       21.020920203403932       21.131211677131716       21.0078785568366         21.017354729976375       21.109674235702187       21.01188752977413        21.03827025003966        21.001753079137472       21.025046996506035       21.00161920465206        21.000800631155016       21.009535700719027       21.000129188635754       21.011291751891633       21.026623910672072       21.00006007861299        21.011588516339486       21.000706200745185       21.00030832617324        21.001814203113213       21.0002271413166         21.00034510352043        21.011883846056264       21.120245694372727       21.01658283110038        21.781142720890898       21.00767789509655        21.143896114554423       21.02385850389271        21.8840011982727
3                        352.18338990618497       323.2908062628942        332.8457337309843        328.3123862871578        329.690433734193         345.05175697610605       344.2134893195365        330.16817733070377       324.0217536918658        338.0618667491277        341.1515909287939        334.2352919600463        330.4625102901921        314.8865371055257        320.77088293489226       282.03792489809575       277.8876208371066        284.2133910600975        284.577037232066         278.188905666064         278.7411558690045        275.3841437637898        277.9229795950141        345.84025222802825       347.1420931151439        331.021808937989         368.72797058516926       329.7841182423301        334.32183608317337       321.2453321682443        354.7746490572963
6                        491.5206803501595        460.9752418696795        475.69979408429015       472.4062917230325        469.46875269994416       489.28431453262783       489.320447605827         471.6216112752355        463.6485811580211        482.20487175347284       486.17792877179113       479.2400073228007        474.58403880005835       454.4764545709372        462.17964873353617       419.5141245742817        413.6074532992898        425.38570663451185       427.0527780995908        420.82090868607577       420.1536150243621        411.58640386875527       415.806249533278         490.77007515061086       491.1656732673381        470.4579691189996        510.01389724265357       470.52474606619523       473.7946458456604        455.2178851038167        490.5560792556779
9                        574.6486683969373        543.1763639011347        561.1582179582657        558.857799816156         549.5700376144599        572.3475818795516        573.1814954137063        552.6436892046821        543.6513315509044        565.2127966553719        569.9899043208712        563.0500262301904        557.5890717422833        534.4688829761442        543.1829762737112        501.3401656153237        494.4514962926197        509.6171664240601        512.3003818392475        506.2693061820204        504.6279971492704        492.79015545423624       497.95457824561527       574.5369992409611        574.1085771953116        550.3501283920109        590.9381583615703        554.7329302358517        557.0044346562958        534.991265067018         571.3490538253593
12                       632.1828199380692        600.11344584455          620.3089912798815        618.745049800212         605.6923611174724        630.6812508060053        632.1812784957913        609.3986196224672        599.7101046119095        623.5118652457367        628.9592939282953        622.0229555819177        615.8905877943212        590.524504802939         599.9280294041603        558.084314855026         550.5628287697684        568.0293818309323        571.4658993844915        565.5097100320643        563.142051914672         549.0778789906548        554.8515547606455        633.4847308348855        632.3700643615286        606.3409367081503        647.6326339544361        613.2240613443469        614.7521411401551        590.4037883892097        627.4191005073624
15                       674.776209093938         642.3070511671294        664.052329259705         663.0376063867243        648.632959475688         675.3589188504502        677.4170999142725        652.811492094588         642.609065565993         668.1676480293102        674.1760613584004        667.2440153705595        660.5494954190693        633.4215184191693        643.3337182927455        600.182557994474         592.2378542663448        611.3128860007042        615.3108473258732        609.397135568534         606.4826087820771        590.8509460054505        597.0343707297602        678.6911847137563        677.002658294697         649.1953805136432        691.0055744750367        656.6462867499434        657.6150414188916        631.6255280591067        669.0825079298323
18                       708.9872476455434        676.2329699457034        699.1180383237875        698.5232006454119        684.3734365518227        712.5072296067534        715.0301484869074        688.9273877461881        678.3208624106561        705.3013438665629        711.7764717322488        704.8478295251903        697.6854640385509        669.1307749698955        679.4430425387898        634.0644650148286        625.8184363805997        646.0751794256807        650.5024695373199        644.620930058228         641.2840326622231        624.4912081111058        630.9685284933589        716.2860976538885        714.120374927899         684.8752530876325        727.092612467566         691.5640040109646        692.1006731263651        664.8970463202369        702.6702805421061
21                       738.0175230075411        705.0508296771225        728.8059631180313        728.5406459421147        715.4402073799461        744.7185161090891        747.6237364181803        720.2971978008761        709.3672197995917        737.5025057697916        744.3613528796651        737.4351325023155        729.8880201855848        700.1741124549018        710.8067346252805        662.8683027179994        654.3982423134216        675.556172728289         680.3205695105543        674.4646075684066        670.7931578425861        653.1079262144234        659.8053635788194        748.8677796197305        746.3098373663213        715.8976395467505        758.4406211893598        721.1996756393777        721.3939146987403        693.2582830837406        731.2678945530802
24                       763.5888781822531        730.458884915125         754.8975338194272        754.8970036252234        743.0813939483938        773.2833208767164        776.4989603555499        748.1820485676955        736.9936468048332        766.0601693835823        773.2304670989414        766.3059369466772        758.446482534306         727.7974692604537        738.6861278900583        688.2814410421317        679.6395939800382        701.5046591543755        706.540057198274         700.7057354141326        696.763264956342         678.3728460372367        685.2402223888264        777.7349834434634        774.8587594365075        743.505824316575         786.3087950098733        747.2976794484744        747.2143925419665        718.3433025737985        756.5349233247156
27                       786.8419258688549        753.581775471746         778.5753379459715        778.7936001520646        768.1340216056441        799.075537551346         802.5405342191503        773.4292083247209        762.0353791127337        791.847220483049         799.2676411797951        792.3443408068946        784.2340208938757        752.8364503140762        763.9286740842675        711.4212968173894        702.6429373075428        725.0812904212181        730.3406592251569        724.5263067852705        720.3584695114052        701.3931065271046        708.39625900258          803.7710023128967        800.6392106700686        768.5335910428918        811.5431313928217        771.0176904339552        770.7035862245415        741.2338547007572        779.5704349871286
