% Model:              brazing.mph
% Version:            COMSOL 5.3.0.223
% Date:               Oct 23 2018, 23:49
% Table:              Table 3 - 
% Time (s)               Temperature (Cp_Al = 940.1, k_Al = 161, sigma_Al = 3.679E7, rho_Al = 2526.8, Cp_inlet = 834.1, k_inlet = 144.5, sigma_inlet = 3.8117E7, rho_inlet = 2478.7, Cp_outlet = 919.9, k_outlet = 169.2, sigma_outlet = 3.3971E7, rho_outlet = 2820.5, Cp_outlet_sleeve = 896.4, k_outlet_sleeve = 153.1, sigma_outlet_sleeve = 3.5251E7, rho_outlet_sleeve = 2638.4, Cp_inlet_sleeve = 885, k_inlet_sleeve = 168.4, sigma_inlet_sleeve = 3.9255E7, rho_inlet_sleeve = 2780.6) (degC), Point: 55Temperature (Cp_Al = 940.1, k_Al = 161, sigma_Al = 3.679E7, rho_Al = 2526.8, Cp_inlet = 834.1, k_inlet = 144.5, sigma_inlet = 3.8117E7, rho_inlet = 2478.7, Cp_outlet = 919.9, k_outlet = 169.2, sigma_outlet = 3.3971E7, rho_outlet = 2820.5, Cp_outlet_sleeve = 896.4, k_outlet_sleeve = 153.1, sigma_outlet_sleeve = 3.5251E7, rho_outlet_sleeve = 2638.4, Cp_inlet_sleeve = 885, k_inlet_sleeve = 168.4, sigma_inlet_sleeve = 3.9255E7, rho_inlet_sleeve = 2780.6) (degC), Point: 56Temperature (Cp_Al = 940.1, k_Al = 161, sigma_Al = 3.679E7, rho_Al = 2526.8, Cp_inlet = 834.1, k_inlet = 144.5, sigma_inlet = 3.8117E7, rho_inlet = 2478.7, Cp_outlet = 919.9, k_outlet = 169.2, sigma_outlet = 3.3971E7, rho_outlet = 2820.5, Cp_outlet_sleeve = 896.4, k_outlet_sleeve = 153.1, sigma_outlet_sleeve = 3.5251E7, rho_outlet_sleeve = 2638.4, Cp_inlet_sleeve = 885, k_inlet_sleeve = 168.4, sigma_inlet_sleeve = 3.9255E7, rho_inlet_sleeve = 2780.6) (degC), Point: 60Temperature (Cp_Al = 940.1, k_Al = 161, sigma_Al = 3.679E7, rho_Al = 2526.8, Cp_inlet = 834.1, k_inlet = 144.5, sigma_inlet = 3.8117E7, rho_inlet = 2478.7, Cp_outlet = 919.9, k_outlet = 169.2, sigma_outlet = 3.3971E7, rho_outlet = 2820.5, Cp_outlet_sleeve = 896.4, k_outlet_sleeve = 153.1, sigma_outlet_sleeve = 3.5251E7, rho_outlet_sleeve = 2638.4, Cp_inlet_sleeve = 885, k_inlet_sleeve = 168.4, sigma_inlet_sleeve = 3.9255E7, rho_inlet_sleeve = 2780.6) (degC), Point: 69Temperature (Cp_Al = 940.1, k_Al = 161, sigma_Al = 3.679E7, rho_Al = 2526.8, Cp_inlet = 834.1, k_inlet = 144.5, sigma_inlet = 3.8117E7, rho_inlet = 2478.7, Cp_outlet = 919.9, k_outlet = 169.2, sigma_outlet = 3.3971E7, rho_outlet = 2820.5, Cp_outlet_sleeve = 896.4, k_outlet_sleeve = 153.1, sigma_outlet_sleeve = 3.5251E7, rho_outlet_sleeve = 2638.4, Cp_inlet_sleeve = 885, k_inlet_sleeve = 168.4, sigma_inlet_sleeve = 3.9255E7, rho_inlet_sleeve = 2780.6) (degC), Point: 90Temperature (Cp_Al = 940.1, k_Al = 161, sigma_Al = 3.679E7, rho_Al = 2526.8, Cp_inlet = 834.1, k_inlet = 144.5, sigma_inlet = 3.8117E7, rho_inlet = 2478.7, Cp_outlet = 919.9, k_outlet = 169.2, sigma_outlet = 3.3971E7, rho_outlet = 2820.5, Cp_outlet_sleeve = 896.4, k_outlet_sleeve = 153.1, sigma_outlet_sleeve = 3.5251E7, rho_outlet_sleeve = 2638.4, Cp_inlet_sleeve = 885, k_inlet_sleeve = 168.4, sigma_inlet_sleeve = 3.9255E7, rho_inlet_sleeve = 2780.6) (degC), Point: 98Temperature (Cp_Al = 940.1, k_Al = 161, sigma_Al = 3.679E7, rho_Al = 2526.8, Cp_inlet = 834.1, k_inlet = 144.5, sigma_inlet = 3.8117E7, rho_inlet = 2478.7, Cp_outlet = 919.9, k_outlet = 169.2, sigma_outlet = 3.3971E7, rho_outlet = 2820.5, Cp_outlet_sleeve = 896.4, k_outlet_sleeve = 153.1, sigma_outlet_sleeve = 3.5251E7, rho_outlet_sleeve = 2638.4, Cp_inlet_sleeve = 885, k_inlet_sleeve = 168.4, sigma_inlet_sleeve = 3.9255E7, rho_inlet_sleeve = 2780.6) (degC), Point: 102Temperature (Cp_Al = 940.1, k_Al = 161, sigma_Al = 3.679E7, rho_Al = 2526.8, Cp_inlet = 834.1, k_inlet = 144.5, sigma_inlet = 3.8117E7, rho_inlet = 2478.7, Cp_outlet = 919.9, k_outlet = 169.2, sigma_outlet = 3.3971E7, rho_outlet = 2820.5, Cp_outlet_sleeve = 896.4, k_outlet_sleeve = 153.1, sigma_outlet_sleeve = 3.5251E7, rho_outlet_sleeve = 2638.4, Cp_inlet_sleeve = 885, k_inlet_sleeve = 168.4, sigma_inlet_sleeve = 3.9255E7, rho_inlet_sleeve = 2780.6) (degC), Point: 127Temperature (Cp_Al = 940.1, k_Al = 161, sigma_Al = 3.679E7, rho_Al = 2526.8, Cp_inlet = 834.1, k_inlet = 144.5, sigma_inlet = 3.8117E7, rho_inlet = 2478.7, Cp_outlet = 919.9, k_outlet = 169.2, sigma_outlet = 3.3971E7, rho_outlet = 2820.5, Cp_outlet_sleeve = 896.4, k_outlet_sleeve = 153.1, sigma_outlet_sleeve = 3.5251E7, rho_outlet_sleeve = 2638.4, Cp_inlet_sleeve = 885, k_inlet_sleeve = 168.4, sigma_inlet_sleeve = 3.9255E7, rho_inlet_sleeve = 2780.6) (degC), Point: 128Temperature (Cp_Al = 940.1, k_Al = 161, sigma_Al = 3.679E7, rho_Al = 2526.8, Cp_inlet = 834.1, k_inlet = 144.5, sigma_inlet = 3.8117E7, rho_inlet = 2478.7, Cp_outlet = 919.9, k_outlet = 169.2, sigma_outlet = 3.3971E7, rho_outlet = 2820.5, Cp_outlet_sleeve = 896.4, k_outlet_sleeve = 153.1, sigma_outlet_sleeve = 3.5251E7, rho_outlet_sleeve = 2638.4, Cp_inlet_sleeve = 885, k_inlet_sleeve = 168.4, sigma_inlet_sleeve = 3.9255E7, rho_inlet_sleeve = 2780.6) (degC), Point: 134Temperature (Cp_Al = 940.1, k_Al = 161, sigma_Al = 3.679E7, rho_Al = 2526.8, Cp_inlet = 834.1, k_inlet = 144.5, sigma_inlet = 3.8117E7, rho_inlet = 2478.7, Cp_outlet = 919.9, k_outlet = 169.2, sigma_outlet = 3.3971E7, rho_outlet = 2820.5, Cp_outlet_sleeve = 896.4, k_outlet_sleeve = 153.1, sigma_outlet_sleeve = 3.5251E7, rho_outlet_sleeve = 2638.4, Cp_inlet_sleeve = 885, k_inlet_sleeve = 168.4, sigma_inlet_sleeve = 3.9255E7, rho_inlet_sleeve = 2780.6) (degC), Point: 138Temperature (Cp_Al = 940.1, k_Al = 161, sigma_Al = 3.679E7, rho_Al = 2526.8, Cp_inlet = 834.1, k_inlet = 144.5, sigma_inlet = 3.8117E7, rho_inlet = 2478.7, Cp_outlet = 919.9, k_outlet = 169.2, sigma_outlet = 3.3971E7, rho_outlet = 2820.5, Cp_outlet_sleeve = 896.4, k_outlet_sleeve = 153.1, sigma_outlet_sleeve = 3.5251E7, rho_outlet_sleeve = 2638.4, Cp_inlet_sleeve = 885, k_inlet_sleeve = 168.4, sigma_inlet_sleeve = 3.9255E7, rho_inlet_sleeve = 2780.6) (degC), Point: 151Temperature (Cp_Al = 940.1, k_Al = 161, sigma_Al = 3.679E7, rho_Al = 2526.8, Cp_inlet = 834.1, k_inlet = 144.5, sigma_inlet = 3.8117E7, rho_inlet = 2478.7, Cp_outlet = 919.9, k_outlet = 169.2, sigma_outlet = 3.3971E7, rho_outlet = 2820.5, Cp_outlet_sleeve = 896.4, k_outlet_sleeve = 153.1, sigma_outlet_sleeve = 3.5251E7, rho_outlet_sleeve = 2638.4, Cp_inlet_sleeve = 885, k_inlet_sleeve = 168.4, sigma_inlet_sleeve = 3.9255E7, rho_inlet_sleeve = 2780.6) (degC), Point: 154Temperature (Cp_Al = 940.1, k_Al = 161, sigma_Al = 3.679E7, rho_Al = 2526.8, Cp_inlet = 834.1, k_inlet = 144.5, sigma_inlet = 3.8117E7, rho_inlet = 2478.7, Cp_outlet = 919.9, k_outlet = 169.2, sigma_outlet = 3.3971E7, rho_outlet = 2820.5, Cp_outlet_sleeve = 896.4, k_outlet_sleeve = 153.1, sigma_outlet_sleeve = 3.5251E7, rho_outlet_sleeve = 2638.4, Cp_inlet_sleeve = 885, k_inlet_sleeve = 168.4, sigma_inlet_sleeve = 3.9255E7, rho_inlet_sleeve = 2780.6) (degC), Point: 159Temperature (Cp_Al = 940.1, k_Al = 161, sigma_Al = 3.679E7, rho_Al = 2526.8, Cp_inlet = 834.1, k_inlet = 144.5, sigma_inlet = 3.8117E7, rho_inlet = 2478.7, Cp_outlet = 919.9, k_outlet = 169.2, sigma_outlet = 3.3971E7, rho_outlet = 2820.5, Cp_outlet_sleeve = 896.4, k_outlet_sleeve = 153.1, sigma_outlet_sleeve = 3.5251E7, rho_outlet_sleeve = 2638.4, Cp_inlet_sleeve = 885, k_inlet_sleeve = 168.4, sigma_inlet_sleeve = 3.9255E7, rho_inlet_sleeve = 2780.6) (degC), Point: 163Temperature (Cp_Al = 940.1, k_Al = 161, sigma_Al = 3.679E7, rho_Al = 2526.8, Cp_inlet = 834.1, k_inlet = 144.5, sigma_inlet = 3.8117E7, rho_inlet = 2478.7, Cp_outlet = 919.9, k_outlet = 169.2, sigma_outlet = 3.3971E7, rho_outlet = 2820.5, Cp_outlet_sleeve = 896.4, k_outlet_sleeve = 153.1, sigma_outlet_sleeve = 3.5251E7, rho_outlet_sleeve = 2638.4, Cp_inlet_sleeve = 885, k_inlet_sleeve = 168.4, sigma_inlet_sleeve = 3.9255E7, rho_inlet_sleeve = 2780.6) (degC), Point: 167Temperature (Cp_Al = 940.1, k_Al = 161, sigma_Al = 3.679E7, rho_Al = 2526.8, Cp_inlet = 834.1, k_inlet = 144.5, sigma_inlet = 3.8117E7, rho_inlet = 2478.7, Cp_outlet = 919.9, k_outlet = 169.2, sigma_outlet = 3.3971E7, rho_outlet = 2820.5, Cp_outlet_sleeve = 896.4, k_outlet_sleeve = 153.1, sigma_outlet_sleeve = 3.5251E7, rho_outlet_sleeve = 2638.4, Cp_inlet_sleeve = 885, k_inlet_sleeve = 168.4, sigma_inlet_sleeve = 3.9255E7, rho_inlet_sleeve = 2780.6) (degC), Point: 168Temperature (Cp_Al = 940.1, k_Al = 161, sigma_Al = 3.679E7, rho_Al = 2526.8, Cp_inlet = 834.1, k_inlet = 144.5, sigma_inlet = 3.8117E7, rho_inlet = 2478.7, Cp_outlet = 919.9, k_outlet = 169.2, sigma_outlet = 3.3971E7, rho_outlet = 2820.5, Cp_outlet_sleeve = 896.4, k_outlet_sleeve = 153.1, sigma_outlet_sleeve = 3.5251E7, rho_outlet_sleeve = 2638.4, Cp_inlet_sleeve = 885, k_inlet_sleeve = 168.4, sigma_inlet_sleeve = 3.9255E7, rho_inlet_sleeve = 2780.6) (degC), Point: 172Temperature (Cp_Al = 940.1, k_Al = 161, sigma_Al = 3.679E7, rho_Al = 2526.8, Cp_inlet = 834.1, k_inlet = 144.5, sigma_inlet = 3.8117E7, rho_inlet = 2478.7, Cp_outlet = 919.9, k_outlet = 169.2, sigma_outlet = 3.3971E7, rho_outlet = 2820.5, Cp_outlet_sleeve = 896.4, k_outlet_sleeve = 153.1, sigma_outlet_sleeve = 3.5251E7, rho_outlet_sleeve = 2638.4, Cp_inlet_sleeve = 885, k_inlet_sleeve = 168.4, sigma_inlet_sleeve = 3.9255E7, rho_inlet_sleeve = 2780.6) (degC), Point: 181Temperature (Cp_Al = 940.1, k_Al = 161, sigma_Al = 3.679E7, rho_Al = 2526.8, Cp_inlet = 834.1, k_inlet = 144.5, sigma_inlet = 3.8117E7, rho_inlet = 2478.7, Cp_outlet = 919.9, k_outlet = 169.2, sigma_outlet = 3.3971E7, rho_outlet = 2820.5, Cp_outlet_sleeve = 896.4, k_outlet_sleeve = 153.1, sigma_outlet_sleeve = 3.5251E7, rho_outlet_sleeve = 2638.4, Cp_inlet_sleeve = 885, k_inlet_sleeve = 168.4, sigma_inlet_sleeve = 3.9255E7, rho_inlet_sleeve = 2780.6) (degC), Point: 201Temperature (Cp_Al = 940.1, k_Al = 161, sigma_Al = 3.679E7, rho_Al = 2526.8, Cp_inlet = 834.1, k_inlet = 144.5, sigma_inlet = 3.8117E7, rho_inlet = 2478.7, Cp_outlet = 919.9, k_outlet = 169.2, sigma_outlet = 3.3971E7, rho_outlet = 2820.5, Cp_outlet_sleeve = 896.4, k_outlet_sleeve = 153.1, sigma_outlet_sleeve = 3.5251E7, rho_outlet_sleeve = 2638.4, Cp_inlet_sleeve = 885, k_inlet_sleeve = 168.4, sigma_inlet_sleeve = 3.9255E7, rho_inlet_sleeve = 2780.6) (degC), Point: 210Temperature (Cp_Al = 940.1, k_Al = 161, sigma_Al = 3.679E7, rho_Al = 2526.8, Cp_inlet = 834.1, k_inlet = 144.5, sigma_inlet = 3.8117E7, rho_inlet = 2478.7, Cp_outlet = 919.9, k_outlet = 169.2, sigma_outlet = 3.3971E7, rho_outlet = 2820.5, Cp_outlet_sleeve = 896.4, k_outlet_sleeve = 153.1, sigma_outlet_sleeve = 3.5251E7, rho_outlet_sleeve = 2638.4, Cp_inlet_sleeve = 885, k_inlet_sleeve = 168.4, sigma_inlet_sleeve = 3.9255E7, rho_inlet_sleeve = 2780.6) (degC), Point: 213Temperature (Cp_Al = 940.1, k_Al = 161, sigma_Al = 3.679E7, rho_Al = 2526.8, Cp_inlet = 834.1, k_inlet = 144.5, sigma_inlet = 3.8117E7, rho_inlet = 2478.7, Cp_outlet = 919.9, k_outlet = 169.2, sigma_outlet = 3.3971E7, rho_outlet = 2820.5, Cp_outlet_sleeve = 896.4, k_outlet_sleeve = 153.1, sigma_outlet_sleeve = 3.5251E7, rho_outlet_sleeve = 2638.4, Cp_inlet_sleeve = 885, k_inlet_sleeve = 168.4, sigma_inlet_sleeve = 3.9255E7, rho_inlet_sleeve = 2780.6) (degC), Point: 215Temperature (Cp_Al = 940.1, k_Al = 161, sigma_Al = 3.679E7, rho_Al = 2526.8, Cp_inlet = 834.1, k_inlet = 144.5, sigma_inlet = 3.8117E7, rho_inlet = 2478.7, Cp_outlet = 919.9, k_outlet = 169.2, sigma_outlet = 3.3971E7, rho_outlet = 2820.5, Cp_outlet_sleeve = 896.4, k_outlet_sleeve = 153.1, sigma_outlet_sleeve = 3.5251E7, rho_outlet_sleeve = 2638.4, Cp_inlet_sleeve = 885, k_inlet_sleeve = 168.4, sigma_inlet_sleeve = 3.9255E7, rho_inlet_sleeve = 2780.6) (degC), Point: 229Temperature (Cp_Al = 940.1, k_Al = 161, sigma_Al = 3.679E7, rho_Al = 2526.8, Cp_inlet = 834.1, k_inlet = 144.5, sigma_inlet = 3.8117E7, rho_inlet = 2478.7, Cp_outlet = 919.9, k_outlet = 169.2, sigma_outlet = 3.3971E7, rho_outlet = 2820.5, Cp_outlet_sleeve = 896.4, k_outlet_sleeve = 153.1, sigma_outlet_sleeve = 3.5251E7, rho_outlet_sleeve = 2638.4, Cp_inlet_sleeve = 885, k_inlet_sleeve = 168.4, sigma_inlet_sleeve = 3.9255E7, rho_inlet_sleeve = 2780.6) (degC), Point: 232Temperature (Cp_Al = 940.1, k_Al = 161, sigma_Al = 3.679E7, rho_Al = 2526.8, Cp_inlet = 834.1, k_inlet = 144.5, sigma_inlet = 3.8117E7, rho_inlet = 2478.7, Cp_outlet = 919.9, k_outlet = 169.2, sigma_outlet = 3.3971E7, rho_outlet = 2820.5, Cp_outlet_sleeve = 896.4, k_outlet_sleeve = 153.1, sigma_outlet_sleeve = 3.5251E7, rho_outlet_sleeve = 2638.4, Cp_inlet_sleeve = 885, k_inlet_sleeve = 168.4, sigma_inlet_sleeve = 3.9255E7, rho_inlet_sleeve = 2780.6) (degC), Point: 239Temperature (Cp_Al = 940.1, k_Al = 161, sigma_Al = 3.679E7, rho_Al = 2526.8, Cp_inlet = 834.1, k_inlet = 144.5, sigma_inlet = 3.8117E7, rho_inlet = 2478.7, Cp_outlet = 919.9, k_outlet = 169.2, sigma_outlet = 3.3971E7, rho_outlet = 2820.5, Cp_outlet_sleeve = 896.4, k_outlet_sleeve = 153.1, sigma_outlet_sleeve = 3.5251E7, rho_outlet_sleeve = 2638.4, Cp_inlet_sleeve = 885, k_inlet_sleeve = 168.4, sigma_inlet_sleeve = 3.9255E7, rho_inlet_sleeve = 2780.6) (degC), Point: 252Temperature (Cp_Al = 940.1, k_Al = 161, sigma_Al = 3.679E7, rho_Al = 2526.8, Cp_inlet = 834.1, k_inlet = 144.5, sigma_inlet = 3.8117E7, rho_inlet = 2478.7, Cp_outlet = 919.9, k_outlet = 169.2, sigma_outlet = 3.3971E7, rho_outlet = 2820.5, Cp_outlet_sleeve = 896.4, k_outlet_sleeve = 153.1, sigma_outlet_sleeve = 3.5251E7, rho_outlet_sleeve = 2638.4, Cp_inlet_sleeve = 885, k_inlet_sleeve = 168.4, sigma_inlet_sleeve = 3.9255E7, rho_inlet_sleeve = 2780.6) (degC), Point: 261Temperature (Cp_Al = 940.1, k_Al = 161, sigma_Al = 3.679E7, rho_Al = 2526.8, Cp_inlet = 834.1, k_inlet = 144.5, sigma_inlet = 3.8117E7, rho_inlet = 2478.7, Cp_outlet = 919.9, k_outlet = 169.2, sigma_outlet = 3.3971E7, rho_outlet = 2820.5, Cp_outlet_sleeve = 896.4, k_outlet_sleeve = 153.1, sigma_outlet_sleeve = 3.5251E7, rho_outlet_sleeve = 2638.4, Cp_inlet_sleeve = 885, k_inlet_sleeve = 168.4, sigma_inlet_sleeve = 3.9255E7, rho_inlet_sleeve = 2780.6) (degC), Point: 270Temperature (Cp_Al = 940.1, k_Al = 161, sigma_Al = 3.679E7, rho_Al = 2526.8, Cp_inlet = 834.1, k_inlet = 144.5, sigma_inlet = 3.8117E7, rho_inlet = 2478.7, Cp_outlet = 919.9, k_outlet = 169.2, sigma_outlet = 3.3971E7, rho_outlet = 2820.5, Cp_outlet_sleeve = 896.4, k_outlet_sleeve = 153.1, sigma_outlet_sleeve = 3.5251E7, rho_outlet_sleeve = 2638.4, Cp_inlet_sleeve = 885, k_inlet_sleeve = 168.4, sigma_inlet_sleeve = 3.9255E7, rho_inlet_sleeve = 2780.6) (degC), Point: 273Temperature (Cp_Al = 940.1, k_Al = 161, sigma_Al = 3.679E7, rho_Al = 2526.8, Cp_inlet = 834.1, k_inlet = 144.5, sigma_inlet = 3.8117E7, rho_inlet = 2478.7, Cp_outlet = 919.9, k_outlet = 169.2, sigma_outlet = 3.3971E7, rho_outlet = 2820.5, Cp_outlet_sleeve = 896.4, k_outlet_sleeve = 153.1, sigma_outlet_sleeve = 3.5251E7, rho_outlet_sleeve = 2638.4, Cp_inlet_sleeve = 885, k_inlet_sleeve = 168.4, sigma_inlet_sleeve = 3.9255E7, rho_inlet_sleeve = 2780.6) (degC), Point: 275
0                        21.58206205206136        21.011598441429044       21.13293017894864        21.00787144244657        21.013374417490866       21.107878736953808       21.008953989548615       21.024547334064664       21.001413890953984       21.02447750262695        21.001264417216362       21.000669520722795       21.009499638062493       21.00010864518515        21.007314795104264       21.01908053936478        21.00005239448575        21.011647201185667       21.000655656474464       21.00026332968963        21.00177381763848        21.00016169974822        21.000237895772955       21.008973045548487       21.11835328148601        21.012844955844912       21.522226304628873       21.00778561581859        21.14593898247864        21.014556960336904       21.647656431638097
3                        294.2914067074024        258.5306445433546        266.6050539100312        261.40687089955316       262.10651252069476       275.95885542860196       274.7109440983472        261.6106188513288        256.7797414484062        268.5437214762949        270.9390988454453        262.42712747241853       259.44023642525895       246.03329934253725       250.9768222483159        225.82472549277122       221.48614843508517       229.70391675564946       230.8694320817379        224.57226051230447       223.90345140336973       217.98811945701397       220.48324680826687       276.78538618312655       278.4481305268017        263.6624419038702        295.18544206398997       263.2490285206586        268.73061937244825       258.1288756040318        299.0568046854589
6                        417.3457765618971        380.1373022578473        391.48696398201866       386.84173385394024       381.70633142241445       400.7314429440171        400.6452657321096        383.06513851579484       376.228458975203         393.21462003553415       396.7760733764135        388.24152928541105       384.09139263886425       365.4479856836789        372.39075751558175       347.8667408516934        342.01674851305665       353.66757464058685       355.4145882787061        348.8636002807466        347.6658073842498        338.4684844329297        342.42691188943854       402.5146316732498        402.9865754321331        382.9242614118549        416.4714986916323        386.50146824687147       391.4180315476593        377.32248574474045       419.8015320095427
9                        492.27257221436685       454.13369805429204       468.07927974764937       464.10530944598963       447.0694018328095        469.3725911382678        470.23291607835085       449.41601501118146       441.49855558321303       461.79846701773636       466.3096957575939        457.76910782423454       452.67002065818497       430.7087399795247        438.72360049319775       421.9859929814643        415.16265301069086       429.52669274899233       431.97039753466777       425.4982765084775        423.63617405427806       411.82215799772484       416.722980123055         471.99843345574016       471.4993211429934        448.0905628361295        482.7276489791162        462.4029734468313        466.62870291460035       449.7710988943354        493.2518655489429
12                       543.9205389387968        505.13458294542113       521.0715971169           517.683887408955         489.6110194001311        514.0886620547326        515.6427600180967        492.5542838353517        483.9798767730565        506.4786301951772        511.685994420998         503.1467723489385        497.35167889925253       473.18972512647656       481.8547321783309        473.14251096972055       465.6420406396139        482.081973404428         485.13201757455306       478.7280465626368        476.27629637104883       462.442542452377         468.00007466256307       517.3501493956649        516.1388676236435        490.5101569848101        525.8093304473824        515.2017249708764        518.8169795490423        499.8361249855932        544.014608797966
15                       583.4593616386068        544.1880833360943        561.7039230640945        558.8106136061306        521.6268175643313        547.665052296977         549.7409037982146        524.9779972230447        515.9539530232814        540.0306617124642        545.7615232545141        537.2266615851098        530.907985022281         505.167023300442         514.2764771403348        512.359328893946         504.35212762732726       522.432639878235         525.9927643880587        519.6687209035742        516.7144517845868        501.27098279828374       507.32219168216784       551.4131732296894        549.6661806127776        522.444922727952         558.1969482441376        555.8676937171035        558.9640873748585        538.2975416500685        582.9991283292946
18                       615.0350633284285        575.38894091312          594.1865799550283        591.7150837692691        547.039672177981         574.2353512095677        576.7148700288009        550.6799427052707        541.337928102829         566.584536914518         572.7203372054913        564.190750629133         557.4669064405344        530.5553098155785        539.9787039313669        543.722122674135         535.3246652944822        554.7328933637497        558.7273129743073        552.4877905036179        549.1013289161351        532.3453179915898        538.7785320650304        578.3665843204906        576.2051176563205        547.803722937756         583.8756734174607        588.5116753791975        591.1628201919992        569.1269480517449        614.2319715839071
21                       641.7865787457255        601.8367020264839        621.7104403710789        619.6046116716891        568.7008869174401        596.8079028685403        599.6144856659855        572.5620946638741        562.9785366861715        589.1456969870068        595.6094925814867        587.0851013198477        580.0329683665285        552.2001761901172        561.8618738130402        570.3267995356595        561.6141370568853        582.1336938304096        586.50393339967          580.3464288970629        576.5834685938372        558.7227784846484        565.4657543826391        601.2541153619711        598.7569206265795        569.4275151547164        605.742187738295         616.2542612751373        618.5182570285496        595.3338097078206        640.7647838872332
24                       665.4719009867049        625.266912335325         646.0662621617577        644.2813567135805        588.0979763255665        616.9562609438278        620.0375619425841        592.1381146163142        582.3605200492325        609.2859568515975        616.0251564249982        607.5055829222744        600.1777356762756        571.5860689267221        581.4391079459465        593.9070035365037        584.9304833591538        606.4033653081685        611.102906524857         605.0214449673175        600.9272097232364        582.1154122364582        589.1184286756597        621.6702509598642        618.8911939696216        588.7979302324934        625.3073130618782        640.8495422773655        642.7734581748207        618.603061519141         664.3066880622711
27                       687.087507693325         646.6633659534887        668.2704918330845        666.7691466078433        606.0291916381923        635.525086448145         638.8424003349365        610.2196449665706        600.2803819519902        627.848891840581         634.8246139132422        626.3094177548438        618.7447477319255        589.5094645470774        599.5218705308162        615.4447023878264        606.2421836392833        628.5451050316142        633.5352011790086        627.522795482766         623.1355346477969        603.4937341999328        610.7198912001008        640.4713433812935        637.450266250764         606.7096699645422        643.3810602313653        663.294146322004         664.9176796186634        639.889029572967         685.8258762414455
