% Model:              brazing.mph
% Version:            COMSOL 5.3.0.223
% Date:               Oct 24 2018, 04:11
% Dimension:          1
% Nodes:              161
% Expressions:        1
% Description:        Line graph
% x                       Height
0                         657.957003490945
1.9693985890610136E-4     657.9223422967535
3.9298030043864816E-4     657.8988905374582
5.884188308682271E-4      657.8866482130588
7.835557095112735E-4      657.8856153235557
9.786925881542028E-4      657.8957918689488
0.0011741311185834375     657.917177849238
0.0013701715601154056     657.9497732644234
0.0015671114190207022     657.9935781145049
0.0017642608961497635     657.7550794256846
0.0019605081241513326     657.5121547987807
0.0021561515411346144     657.2648042337931
0.002351492352702621      657.013027730722
0.0025468331642698894     656.7568252895672
0.0027424765812509564     656.496196910329
0.0029387238092488436     656.2311425930072
0.0031358732863727766     655.9616623376018
0.0033326885608882563     655.5929844100424
0.0035286060983021257     655.228632596368
0.0037239228519497995     654.8686068965789
0.003918938519653848      654.5129073106747
0.004113954187357973      654.1615338386556
0.004309270941005876      653.8144864805217
0.004505188478420127      653.471765236273
0.004702003752936137      653.1333701059092
0.004899138702461749      652.7848630460193
0.005095371599302965      652.4525300017691
0.005291000816927052      652.1363709731592
0.005486327495291825      651.836385960189
0.005681654173656831      651.5525749628588
0.0058772833912816074     651.2849379811686
0.0060735162881239745     651.0334750151184
0.006270651237651189      650.798186064708
0.006467582778148322      650.620501550446
0.006663615013526554      650.475850143169
0.006859045413116663      650.3642318428768
0.0070541741987231454     650.2856466495699
0.007249302984329781      650.2400945632479
0.007444733383920351      650.227575583911
0.007640765619299351      650.248089711559
0.007837697159797551      650.301636946192
0.008034634474091872      650.2964162538932
0.008230672405352359      650.3284301348771
0.008426108448549354      650.3976785891441
0.008621242851524007      650.504161616694
0.008816377254498534      650.6478792175268
0.009011813297695145      650.8288313916426
0.009207851228955002      651.0470181390411
0.00940478854324844       651.3024394597228
0.00960192671152544       651.6208697109515
0.00979816278359587       651.9538598592428
0.009993795147248338      652.3014099045967
0.010189124956984269      652.6635198470129
0.010384454766719743      653.0401896864917
0.010580087130370853      653.4314194230329
0.010776323202439026      653.8372090566367
0.01097346137071288       654.2575585873028
0.011170281912174305      654.6357461112335
0.011366204645540166      655.0233313334809
0.011561526547508357      655.4203142540451
0.011756547339625332      655.826694872926
0.011951568131742307      656.2424731901237
0.0121468900337105        656.6676492056382
0.012342812767076368      657.1022229194695
0.0125396333085378        657.5461943316174
0.012736771215691979      657.8385771850144
0.012933007030171178      658.1286509648121
0.013128639138602195      658.4164156710109
0.013323968694306592      658.7018713036103
0.013519298250011432      658.9850178626107
0.013714930358443784      659.2658553480118
0.0139111661729252        659.5443837598137
0.014108304080082462      659.8206030980166
0.014305241249097643      659.8161557081089
0.014501279037039759      659.8148418955504
0.014696714938233999      659.8166616603417
0.014891849199866372      659.8216150024822
0.015086983461498874      659.8297019219722
0.015282419362693495      659.8409224188116
0.01547845715063625       659.8552764930004
0.015675394319652317      659.8727641445387
0.015872325504405583      659.4957516879659
0.01606835738884011       659.1240207852246
0.016263787440706973      658.7575714363148
0.016458915880206496      658.3964036412364
0.016654044319705866      658.0405173999893
0.016849474371572262      657.6899127125736
0.017045506256006017      657.3445895789894
0.017242437440758204      657.0045479992366
0.01743957168037589       656.4394573937374
0.017635803876907424      655.8642665537271
0.01783143240066149       655.2789754792057
0.018026758388388308      654.683584170173
0.01822208437611492       654.0780926266292
0.01841771289986836       653.4625008485742
0.018613945096398854      652.836808836008
0.018811079336015085      652.2010165889307
0.019007894687321662      651.5320914818077
0.01920381230049143       650.8649353400872
0.019399129129200405      650.199548163769
0.01959414487161704       649.5359299528533
0.01978916061403359       648.8740807073399
0.01998447744274231       648.2140004272288
0.020180395055911654      647.5556891125203
0.020377210407217645      646.899146763214
0.020574360469106157      646.3108218564033
0.020770608273960874      645.7432373966459
0.020966252262493188      645.1963933839419
0.021161593642948652      644.6702898182914
0.021356935023404883      644.1649266996943
0.021552579011939476      643.6803040281505
0.021748826816797996      643.2164218036603
0.021945976878691802      642.7732800262235
0.022142917141692885      642.4371009873773
0.022338957981867254      642.1448006120547
0.022534396907280062      641.8963789002559
0.02272953417907009       641.6918358519806
0.02292467145086023       641.531171467229
0.02312011037627338       641.4143857460009
0.02331615121644832       641.3414786882965
0.023513091479450195      641.3124502941158
0.023710025135207962      641.243858713766
0.02390605945730262       641.2245024858734
0.024101491924457957      641.2543816104377
0.024296622768016963      641.3334960874593
0.024491753611575823      641.4618459169379
0.02468718607873073       641.6394310988736
0.024883220400824673      641.8662516332664
0.025080154056581445      642.1423075201163
0.025277299572591536      642.5319037035315
0.025473542893039384      642.942644775909
0.02566918243840792       643.3745307372492
0.025864519396400307      643.8275615875517
0.026059856354392216      644.3017373268168
0.026255495899759323      644.7970579550444
0.026451739220204794      645.3135234722344
0.026648884736211575      645.8511338783869
0.02684569473774919       646.4403648373716
0.027041607073256636      647.0348486844495
0.027236918672681274      647.6345854196201
0.027431929210095855      648.2395750428839
0.027626939747510428      648.8498175542406
0.027822251346935042      649.4653129536903
0.028018163682442445      650.086061241233
0.028214973683980002      650.7120624168685
0.028412120943583204      651.3126565864501
0.028608365984047285      651.9013817125773
0.02880400723361381       652.4782377952496
0.02899934588786498       653.0432248344674
0.02919468454211669       653.5963428302307
0.029390325791684838      654.1375917825395
0.02958657083215161       654.6669716913937
0.029783718091758563      655.1844825567933
0.029980652759780888      655.5310585752691
0.030176688080480362      655.8776314789714
0.030372121537075924      656.2242012679004
0.03056725336547531       656.570767942056
0.030762385193874833      656.9173315014383
0.030957818650470807      657.2638919460472
0.031153853971170976      657.6104492758828
0.031350788639194264      657.957003490945
