% Model:              brazing.mph
% Version:            COMSOL 5.3.0.223
% Date:               Oct 24 2018, 03:28
% Dimension:          1
% Nodes:              225
% Expressions:        1
% Description:        Line graph
% x                       Height
0                         691.2104916431963
2.1191841480136804E-4     691.1051978907439
4.2353438892247565E-4     690.9574644862994
6.349689892252786E-4      690.7672914298627
8.463435942227858E-4      690.5346787214337
0.001057779685752053      690.2596263610129
0.001269398639759412      689.9421343485996
0.001481321517995422      689.5822026841944
0.0017252358262731596     689.1049649856806
0.0019686866163640313     688.5923838685196
0.0022118589563155885     688.0444593327114
0.002454938550168189      687.4611913782562
0.0026981113144448556     686.8425800051541
0.0029415629522145732     686.1886252134044
0.0031854785295931678     685.4993270030079
0.0034450106912723537     684.6622334839619
0.0037039863009040125     683.7901207562549
0.003962627412610827      682.8829888198868
0.0042211569424298        681.9408376748576
0.004479798094906585      680.9636673211675
0.004738773785972872      679.951477758816
0.004998306069542035      678.9042689878038
0.005274868491808245      677.689027465495
0.005550758931995686      676.4546162408612
0.0058262454501036105     675.2010353139025
0.006101597285810183      673.9282846846189
0.006377084073678616      672.6363643530107
0.006652975052596927      671.325274319077
0.006929538280995558      669.9950145828187
0.007206101510950518      668.6210267627033
0.007481992491406557      667.2644542394561
0.007757479280801014      665.9252970130765
0.00803283111802884       664.6035550835646
0.008308317637660222      663.2992284509212
0.008584208079380276      662.0123171151452
0.008860770503195153      660.7428210762372
0.009120302815147717      659.5544489418619
0.00937927853441616       658.4096961802819
0.009637919714987194      657.3085627914973
0.009896449272866283      656.2510487755078
0.010155090412673047      655.237154132314
0.010414066050518256      654.2668788619152
0.01067359824059789       653.3402229643119
0.010917512776055054      652.4976631320361
0.011160965100129169      651.7100466601762
0.011404139717480647      650.9773735487321
0.01164722176512739       650.299643797704
0.011890396591516505      649.6768574070919
0.012133849333188814      649.1090143768954
0.012377764493855997      648.596114707115
0.01258968694000722       648.1956856682726
0.012801305803204788      647.8395788647221
0.013012742322906452      647.5277942964636
0.013224118052332232      647.2603319634969
0.01343555464954572       647.0371918658225
0.013647173667633327      646.8583740034396
0.013859096345786744      646.7238783763489
0.014071014760598048      646.6492718287185
0.014282630734729056      646.618263721384
0.01449406533504172       646.6308540543453
0.014705439940049088      646.6870428276026
0.014916876031588231      646.7868300411559
0.015128494985605482      646.9302156950048
0.015340417863851432      647.1171997891498
0.01558433217214941       647.3550930365404
0.015827782962260412      647.6556772477519
0.016070955302232025      648.0189524227839
0.016314034896104664      648.4449185616367
0.0165572076604014        648.9335756643103
0.01680065929819124       649.4849237308044
0.01704457487559009       650.0989627611195
0.01730410703726679       650.7738076072743
0.017563082646895985      651.4925641612134
0.01782172375860034       652.2552324229367
0.018080253288416847      653.0618123924444
0.01833889444089119       653.9123040697368
0.018597870131955005      654.806707454813
0.018857402415521692      655.7450225476739
0.019133964837753384      656.7559687734876
0.019409855277906563      657.7873410436315
0.019685341795980367      658.8391393581062
0.019960693631652874      659.9113637169114
0.0202361804194872        661.0040141200476
0.020512071398371242      662.117090567514
0.020788634626735362      663.2505930593111
0.02106519785666259       664.357463525295
0.021341088837091095      665.4524475607451
0.021616575626458134      666.5355451656615
0.02189192746365859       667.6067563400442
0.022167413983262562      668.6660810838935
0.02244330442495508       669.7135193972089
0.022719866848742224      670.7490712799906
0.022979399160698737      671.6269570539847
0.023238374879971102      672.4815657782946
0.023497016060546046      673.3128974529199
0.023755545618429033      674.1209520778608
0.02401418675823971       674.9057296531176
0.024273162396088833      675.6672301786898
0.024532694586172417      676.4054536545777
0.02477660912165014       677.0237116661797
0.02502006144574469       677.6076825631967
0.025263236063116538      678.1573663456289
0.025506318110783622      678.6727630134764
0.025749492937193107      679.1538725667394
0.02599294567888585       679.6006950054173
0.026236860839573585      680.0132303295106
0.026448783285734738      680.317017810603
0.02666040214894219       680.5996677367013
0.026871838668653707      680.8611801078057
0.027083214398089334      681.1015549239163
0.027294650995312687      681.320792185033
0.027506270013410168      681.5188918911555
0.02771819269157351       681.6958540422843
0.02793011110637494       681.7867224351753
0.028141727080496122      681.8544606777019
0.028353161680798985      681.8990687698636
0.028564536285796558      681.9205467116604
0.028775972377325904      681.9188945030927
0.028987591331333325      681.8941121441601
0.029199514209569403      681.8461996348628
0.02944342851784522       681.6568641573182
0.02968687930793418       681.4228986047852
0.02993005164788383       681.144302977264
0.030173131241734534      680.8210772747547
0.0304163040060093        680.4532214972572
0.0306597556437771        680.0407356447714
0.030903671221153783      679.5836197172974
0.031163203382828072      678.9379347875127
0.03142217899245488       678.2451197510208
0.03168082010415685       677.5051746078217
0.03193934963397098       676.7180993579152
0.032197990786442934      675.8838940013019
0.03245696647750436       675.0025585379809
0.032716498761068635      674.074092967953
0.03299306118333142       672.907829149272
0.03326895162351545       671.7199931736179
0.03354443814161999       670.5105850409907
0.03381978997732317       669.2796047513905
0.034095276765188226      668.0270523048176
0.03437116774410313       666.7529277012712
0.03464773097249833       665.4572309407521
0.034924294202460265      664.0871111887504
0.03520018518292322       662.7379830313865
0.03547567197232456       661.4098464686605
0.035751023809559274      660.1027015005725
0.036026510329197556      658.8165481271226
0.036302400770924524      657.5513863483104
0.03657896319474637       656.3072161641363
0.036838495506703706      655.1400693696319
0.03709747122597688       654.028203724539
0.037356112406552636      652.9716192288578
0.03761464196443644       651.9703158825882
0.03787328310424792       651.0242936857306
0.03813225874209787       650.1335526382843
0.03839179093218227       649.2980927402498
0.03863570546763781       648.5458056156491
0.038879157791710306      647.8614790975804
0.03912233240906017       647.2451131860439
0.03936541445670531       646.6967078810394
0.039608589283092806      646.2162631825674
0.039852042024763494      645.8037790906271
0.04009595718542905       645.4592556052193
0.040307879631580334      645.1983475042945
0.04051949849477797       644.9921661083933
0.0407309350144797        644.8407114175156
0.040942310743905544      644.7439834316617
0.04115374734111909       644.7019821508319
0.04136536635920676       644.714707575025
0.04157728903736024       644.7821597042422
0.04178920745215007       644.9101590516287
0.042000823426259694      645.0912050248633
0.042212258026551035      645.3252976239452
0.04242363263153709       645.6124368488751
0.0426350687230549        645.952622699653
0.042846687677050764      646.3458551762783
0.04305861055527523       646.7921342787515
0.04330252486354604       647.3377032573352
0.043545975653630026      647.9540569372823
0.04378914799357473       648.6411953185927
0.044032227587420474      649.3991184012666
0.04427540035169028       650.2278261853043
0.04451885198945311       651.127318670705
0.044762767566824783      652.0975958574693
0.045022299728516735      653.1639602491165
0.04528127533816108       654.2794159032968
0.045539916449880535      655.4439628200098
0.045798445979712124      656.6576009992558
0.046057087132201545      657.9203304410349
0.04631606282328052       659.2321511453467
0.046575595106862454      660.5930631121915
0.04685215752913061       662.0426108227538
0.04712804796931999       663.5153693202961
0.04740353448742985       665.0113386048188
0.04767888632313835       666.5305186763219
0.04795437311100872       668.0729095348054
0.048230264089928976      669.6385111802689
0.048506827318329566      671.2273236127129
0.04878339054829114       672.7305994042028
0.049059281528753745      674.2109292421322
0.04933476831815475       675.6683131265008
0.0496101201553891        677.1027510573088
0.04988560667502701       678.5142430345563
0.05016149711675364       679.9027890582428
0.050438059540575134      681.2683891283688
0.05069759185254397       682.3773048605989
0.05095656757182859       683.4356401018429
0.05121520875241573       684.4433948521007
0.05147373831031092       685.4005691113728
0.051732379450133786      686.3071628796591
0.05199135508799517       687.163176156959
0.05225088727809108       687.9686089432732
0.0524948018135407        688.6029694420133
0.052738254137607306      689.1746728609191
0.05298142875495131       689.6837191999906
0.05322451080259058       690.130108459228
0.0534676856289722        690.5138406386316
0.05371113837063701       690.8349157382006
0.05395505353129665       691.0933337579356
0.05416697597743634       691.2480579719513
0.054378594840622414      691.3567863948789
0.05459003136031263       691.4195190267185
0.05480140708972696       691.4362558674699
0.05501284368692898       691.4069969171336
0.0552244627050051        691.3317421757089
0.05543638538314697       691.2104916431963
