% Model:              brazing.mph
% Version:            COMSOL 5.3.0.223
% Date:               Oct 24 2018, 04:22
% Dimension:          1
% Nodes:              225
% Expressions:        1
% Description:        Line graph
% x                       Height
0                         701.8007585334293
2.02242572596226E-4       701.7894558066532
4.040113375593453E-4      701.7083793553526
6.054635867748898E-4      701.5575291795274
8.067573541103817E-4      701.3369052791775
0.0010080510467017985     701.046507654303
0.001209503071861434      700.686336304904
0.0014112714639836859     700.2563912309804
0.001613513515825394      699.7566724325322
0.001815803045808458      699.3257042455697
0.0020176184164428694     698.8434838272534
0.0022191170764546647     698.3100111775834
0.0024204572175778446     697.7252862965598
0.00262179740518867       697.0893091841824
0.002823296204553664      696.4020798404513
0.0030251118070788686     695.6635982653663
0.003227401660948015      694.8738644589279
0.0034297372965816655     694.1130312996003
0.003631598594156443      693.3105666176766
0.0038331430353414214     692.4664704131567
0.004034528845142556      691.5807426860408
0.004235914622467191      690.6533834363288
0.004437458966299354      689.6843926640205
0.004639320101874085      688.6737703691163
0.004841655511239337      687.6215165516159
0.005043918276497792      686.6811383019725
0.005245706959792293      685.725604027374
0.0054471789681153834     684.7549137278202
0.00564849245128538       683.7690674033112
0.005849805932728159      682.768065053847
0.006051277935873691      681.7519066794275
0.00625306661055245       680.720592280053
0.006455329363777148      679.6741218557231
0.0066576887471433525     678.661885002317
0.0068595736811967985     677.6687733770192
0.007061141707903535      676.6947869798291
0.007262551112883539      675.7399258107473
0.007463960555734714      674.8041898697735
0.007665528695965537      673.8875791569077
0.00786741381892875       672.99009367215
0.0080697734661485        672.1117334155005
0.008272395437950266      671.3289769283436
0.008474540847339949      670.5676276725937
0.008676367906616744      669.8276856482508
0.008878035577337231      669.109150855315
0.009079703197965442      668.4120232937861
0.009281530107084053      667.7363029636641
0.00948367526660416       667.0819898649492
0.009686296889411194      666.449083997641
0.009888748367913874      666.060525660413
0.010090724718905934      665.7103353539361
0.010292383720552634      665.3985130782103
0.010493883896490891      665.1250588332356
0.010695384145210549      664.8899726190119
0.010897043365029401      664.6932544355395
0.011099020079070253      664.5349042828178
0.011301472064648224      664.4149221608476
0.011503924099142101      664.4136865648427
0.011705900863193036      664.4523609038336
0.011907560133099505      664.53094517782
0.012109060430962503      664.6494393868021
0.012310560654077738      664.8078435307799
0.012512219699917606      665.0061576097536
0.012714196091111104      665.2443816237227
0.012916647604829811      665.5225155726877
0.013119269382981878      665.9774139204848
0.013321414683399362      666.4642774896114
0.013523241722808088      666.9831062800675
0.013724909467002238      667.5339002918532
0.013926577258472442      668.1166595249686
0.014128404439597363      668.7313839794134
0.014330549975836581      669.3780736551878
0.01453317208336263       670.0567285522917
0.014735531766219815      670.8168197890126
0.014937416940401616      671.5882979639063
0.015138985143475461      672.3711630769732
0.015340394656791169      673.1654151282128
0.015541804135826716      673.9710541176256
0.015743372236141022      674.7880800452111
0.015945257239325793      675.6164929109697
0.01614761668334845       676.4562927149012
0.01634987940592303       677.4412347330965
0.016551668047823844      678.410819642727
0.016753140015983766      679.3650474437928
0.0169544534601584        680.3039181362939
0.017155766903708087      681.2274317202301
0.017357238869994664      682.1355881956016
0.017559027508778132      683.0283875624085
0.01776129022699866       683.9058298206505
0.017963625484858744      684.8155510688146
0.018165486461237414      685.6990498788726
0.018367030641941378      686.5563262508247
0.018568416255992027      687.3873801846709
0.018769801906169285      688.1922116804111
0.018971346195167795      688.9708207380451
0.019173207351754082      689.7232073575734
0.019375542861313405      690.4493715389955
0.019577832661189145      691.2086729895111
0.019779648217873542      691.9095868059418
0.019981146975907166      692.5521129882873
0.020182487123025287      693.1362515365479
0.020383827220813066      693.6620024507233
0.020585325830972126      694.1293657308137
0.020787141141585735      694.5383413768191
0.020989430597769934      694.8889293887395
0.021191672662378012      695.3838459840772
0.021393441061935803      695.8090562324736
0.02159489309031221       696.164560133929
0.021796186783028852      696.450357688443
0.021997480548535182      696.6664488960158
0.022198932795108938      696.8128337566477
0.022400701557758636      696.8895122703381
0.02260294412950465       696.8964844370873
0.02280539620920995       696.9632457273625
0.023007373018156245      696.9579140553643
0.02320903233274668       696.8804894210931
0.023410532675187733      696.7309718245485
0.023612032942881025      696.5093612657307
0.023813692033404853      696.2156577446398
0.024015668469493705      695.8498612612756
0.024218120028423832      695.411971815638
0.024420742013481003      695.0168750473623
0.02462288751935683       694.5632136377267
0.02482471476325633       694.0509875867309
0.02502638271145666       693.4801968943752
0.025228050706933344      692.8508415606597
0.025429878092549915      692.1629215855838
0.025632023834248962      691.4164369691481
0.025834646148682177      690.6113877113523
0.026037006051731277      689.8102537427336
0.026238891444565628      688.9646143748788
0.02644045986526205       688.0744696077877
0.026641869595683754      687.1398194414606
0.02684327929182417       686.1606638758975
0.027044847609757647      685.137002911098
0.02724673283158932       684.0688365470625
0.027449092495796006      682.9561647837909
0.02765135518998453       681.8935690289178
0.027853143803698084      680.8200255690188
0.028054615743803996      679.7355344040936
0.028255929159991804      678.6400955341423
0.028457242575555555      677.5337089591651
0.028658714513790734      676.4163746791618
0.028860503124391312      675.288092694132
0.029062765814231884      674.1488630040766
0.029265100752448706      673.0166743380204
0.02946696141141544       671.9112839435147
0.029668505276199596      670.8326918205595
0.029869890575077548      669.7808979691549
0.03007127591008127       668.7559023893009
0.030272819883157453      667.7577050809974
0.03047468072232762       666.7863060442444
0.030677015912237836      665.841705279042
0.030879305594778746      664.9873153555445
0.03108112103494649       664.169727307256
0.031282619677010744      663.3889411341768
0.03148395970843373       662.6449568363065
0.0316852996905265        661.9377744136453
0.031886798184716555      661.2673938661932
0.032088613378814135      660.6338151939501
0.03229090271766436       660.037038396916
0.03249314477533616       659.660887309076
0.03269491316800606       659.3401934918843
0.03289636518952694       659.074956945341
0.03309765887540427       658.8651776694461
0.033298952634071295      658.7108556641996
0.033500404873789524      658.6119909296016
0.03370217362955133       658.5685834656518
0.03390441619436107       658.5806332723504
0.03410686840969767       658.7122185532286
0.03430884535332711       658.8997606361754
0.0345105048019665        659.1432595211908
0.034712005278138794      659.4427152082746
0.03491350567956333       659.7981276974272
0.03511516490413611       660.2094969886482
0.035317141474908095      660.6768230819378
0.03551959316946952       661.200105977296
0.035722216260139425      661.8908217565813
0.03592436286389621       662.6241167712598
0.036126191200505704      663.3999910213313
0.03632786023882611       664.218444506796
0.03652952932442421       665.0794772276538
0.036731357802754806      665.9830891839044
0.03693350464234149       666.9292803755484
0.03713612806239678       667.9180508025854
0.03733848789969145       668.9796540732243
0.037540373227224554      670.0609238409793
0.03774194158292153       671.1618601058508
0.03794335124849304       672.2824628678383
0.03814476087977932       673.4227321269419
0.03834632913270157       674.5826678831621
0.03854821428921239       675.7622701364984
0.038750573887637245      676.9615388869508
0.03895283596123875       678.247707998873
0.039154623958694366      679.5175445206751
0.039356095285438375      680.7710484523571
0.03955740808971597       682.008219793919
0.03975872089337115       683.2290585453608
0.03996019221824938       684.4335647066827
0.04016198021260023       685.6217382778842
0.04036424228186526       686.7935792589659
0.040566577948397485      687.9515864892317
0.040768439330593605      689.071619093638
0.04096998391520435       690.1536770721849
0.04117136993220262       691.1977604248722
0.04137275598532357       692.2038691517
0.04157430067821714       693.1720032526687
0.04177616224060133       694.1021627277776
0.0419784981588055        694.994347577027
0.04218078754816035       695.8797365303088
0.04238260269718259       696.6945779208826
0.04258410104946696       697.4388717487484
0.04278544079179545       698.1126180139063
0.04298678048479618       698.7158167163561
0.043188278689213704      699.2484678560983
0.043390093592177985      699.7105714331321
0.04359238263785921       700.1021274474581
0.043794623705544454      700.5803851112724
0.04399639111513442       700.9826631242101
0.04419784215819482       701.3089614862713
0.04439913486792596       701.559280197456
0.044600427650446826      701.7336192577641
0.04480187891170468       701.8319786671956
0.045003646684386715      701.8543584257509
0.04520588825921017       701.8007585334293
