% Model:              brazing.mph
% Version:            COMSOL 5.3.0.223
% Date:               Oct 24 2018, 06:22
% Dimension:          1
% Nodes:              225
% Expressions:        1
% Description:        Line graph
% x                       Height
0                         706.0802794297406
2.1191841480136804E-4     705.9747787956803
4.2353438892247565E-4     705.827056566233
6.349689892252786E-4      705.6371127413984
8.463435942227858E-4      705.4049473211765
0.001057779685752053      705.1305603055679
0.001269398639759412      704.8139516945718
0.001481321517995422      704.4551214881886
0.0017252358262731596     703.9788922960827
0.0019686866163640313     703.4697138763395
0.0022118589563155885     702.9275862289588
0.002454938550168189      702.3525093539411
0.0026981113144448556     701.744483251286
0.0029415629522145732     701.1035079209934
0.0031854785295931678     700.4295833630636
0.0034450106912723537     699.595375208957
0.0037039863009040125     698.7286222313409
0.003962627412610827      697.8293244302151
0.0042211569424298        696.89748180558
0.004479798094906585      695.9330943574354
0.004738773785972872      694.936162085781
0.004998306069542035      693.9066849906171
0.005274868491808245      692.6898055672201
0.005550758931995686      691.455738638521
0.0058262454501036105     690.2044842045198
0.006101597285810183      688.9360422652167
0.006377084073678616      687.6504128206118
0.006652975052596927      686.3475958707046
0.006929538280995558      685.0275914154956
0.007206101510950518      683.6493170973134
0.007481992491406557      682.2910451872543
0.007757479280801014      680.952775685318
0.00803283111802884       679.6345085915045
0.008308317637660222      678.3362439058145
0.008584208079380276      677.0579816282468
0.008860770503195153      675.7997217588023
0.009120302815147717      674.6148624578765
0.00937927853441616       673.4756660257294
0.009637919714987194      672.3821324623605
0.009896449272866283      671.3342617677704
0.010155090412673047      670.3320539419589
0.010414066050518256      669.3755089849257
0.01067359824059789       668.4646268966711
0.010917512776055054      667.6350688039336
0.011160965100129169      666.8615241884835
0.011404139717480647      666.1439930503208
0.01164722176512739       665.4824753894458
0.011890396591516505      664.8769712058585
0.012133849333188814      664.3274804995584
0.012377764493855997      663.8340032705462
0.01258968694000722       663.452279900006
0.012801305803204788      663.1153740515318
0.013012742322906452      662.8232857251235
0.013224118052332232      662.576014920781
0.01343555464954572       662.3735616385046
0.013647173667633327      662.2159258782937
0.013859096345786744      662.1031076401489
0.014071014760598048      662.0520553497532
0.014282630734729056      662.0451535672961
0.01449406533504172       662.0824022927769
0.014705439940049088      662.163801526196
0.014916876031588231      662.2893512675537
0.015128494985605482      662.4590515168492
0.015340417863851432      662.6729022740831
0.01558433217214941       662.9433704148381
0.015827782962260412      663.2770255594818
0.016070955302232025      663.6738677080143
0.016314034896104664      664.1338968604354
0.0165572076604014        664.6571130167455
0.01680065929819124       665.2435161769439
0.01704457487559009       665.8931063410313
0.01730410703726679       666.6032478646883
0.017563082646895985      667.3585451380877
0.01782172375860034       668.1589981612286
0.018080253288416847      669.0046069341116
0.01833889444089119       669.8953714567368
0.018597870131955005      670.8312917291036
0.018857402415521692      671.8123677512125
0.019133964837753384      672.8571246944942
0.019409855277906563      673.9238237331115
0.019685341795980367      675.0124648670637
0.019960693631652874      676.1230480963513
0.0202361804194872        677.2555734209747
0.020512071398371242      678.4100408409329
0.020788634626735362      679.5864503562266
0.02106519785666259       680.720444646832
0.021341088837091095      681.8438405100494
0.021616575626458134      682.9566379458784
0.02189192746365859       684.0588369543193
0.022167413983262562      685.1504375353725
0.02244330442495508       686.2314396890371
0.022719866848742224      687.3018434153138
0.022979399160698737      688.1860658046699
0.023238374879971102      689.0498797012842
0.023497016060546046      689.8932851051566
0.023755545618429033      690.7162820162873
0.02401418675823971       691.5188704346765
0.024273162396088833      692.3010503603236
0.024532694586172417      693.0628217932292
0.02477660912165014       693.6831858435577
0.02502006144574469       694.2688066889576
0.025263236063116538      694.8196843294288
0.025506318110783622      695.3358187649716
0.025749492937193107      695.8172099955862
0.02599294567888585       696.2638580212716
0.026236860839573585      696.6757628420288
0.026448783285734738      696.970791962966
0.02666040214894219       697.248190470226
0.026871838668653707      697.5079583638089
0.027083214398089334      697.7500956437149
0.027294650995312687      697.9746023099441
0.027506270013410168      698.1814783624959
0.02771819269157351       698.3707238013709
0.02793011110637494       698.455273421365
0.028141727080496122      698.5204796487676
0.028353161680798985      698.5663424835784
0.028564536285796558      698.5928619257977
0.028775972377325904      698.6000379754258
0.028987591331333325      698.587870632462
0.029199514209569403      698.5563598969069
0.02944342851784522       698.3782639991214
0.02968687930793418       698.1530282303889
0.02993005164788383       697.8806525907096
0.030173131241734534      697.5611370800832
0.0304163040060093        697.1944816985103
0.0306597556437771        696.7806864459902
0.030903671221153783      696.3197513225234
0.031163203382828072      695.6519180398914
0.03142217899245488       694.936484539384
0.03168082010415685       694.1734508210008
0.03193934963397098       693.362816884742
0.032197990786442934      692.5045827306079
0.03245696647750436       691.5987483585977
0.032716498761068635      690.6453137687123
0.03299306118333142       689.426620120328
0.03326895162351545       688.1869760010344
0.03354443814161999       686.9263814108317
0.03381978997732317       685.6448363497199
0.034095276765188226      684.342340817699
0.03437116774410313       683.0188948147686
0.03464773097249833       681.6744983409293
0.034924294202460265      680.2316689157535
0.03520018518292322       678.8131721604208
0.03547567197232456       677.4190080749307
0.035751023809559274      676.0491766592837
0.036026510329197556      674.7036779134797
0.036302400770924524      673.3825118375185
0.03657896319474637       672.0856784314003
0.036838495506703706      670.8574976021828
0.03709747122597688       669.6874447954655
0.037356112406552636      668.5755200112485
0.03761464196443644       667.5217232495315
0.03787328310424792       666.5260545103151
0.03813225874209787       665.5885137935985
0.03839179093218227       664.7091010993825
0.03863570546763781       663.9128006879934
0.038879157791710306      663.1860633763132
0.03912233240906017       662.5288891643419
0.03936541445670531       661.9412780520797
0.039608589283092806      661.4232300395266
0.039852042024763494      660.9747451266823
0.04009595718542905       660.595823313547
0.040307879631580334      660.306538194115
0.04051949849477797       660.0729492836418
0.0407309350144797        659.8950565821276
0.040942310743905544      659.7728600895723
0.04115374734111909       659.706359805976
0.04136536635920676       659.6955557313383
0.04157728903736024       659.7404478656598
0.04178920745215007       659.8479286117793
0.042000823426259694      660.0095240822009
0.042212258026551035      660.2252342769249
0.04242363263153709       660.4950591959511
0.0426350687230549        660.8189988392799
0.042846687677050764      661.1970532069104
0.04305861055527523       661.6292222988436
0.04330252486354604       662.1597422114561
0.043545975653630026      662.7628893749023
0.04378914799357473       663.438663789182
0.044032227587420474      664.1870654542953
0.04427540035169028       665.0080943702427
0.04451885198945311       665.9017505370234
0.044762767566824783      666.8680339546379
0.045022299728516735      667.9291646904666
0.04528127533816108       669.0419282532669
0.045539916449880535      670.2063246430391
0.045798445979712124      671.4223538597828
0.046057087132201545      672.6900159034986
0.04631606282328052       674.0093107741857
0.046575595106862454      675.3802384718448
0.04685215752913061       676.8312293414049
0.04712804796931999       678.3092033882131
0.04740353448742985       679.8141606122689
0.04767888632313835       681.3461010135728
0.04795437311100872       682.905024592125
0.048230264089928976      684.4909313479246
0.048506827318329566      686.1038212809725
0.04878339054829114       687.618641053537
0.049059281528753745      689.112790186929
0.04933476831815475       690.5862686811483
0.0496101201553891        692.0390765361952
0.04988560667502701       693.4712137520697
0.05016149711675364       694.8826803287712
0.050438059540575134      696.2734762663005
0.05069759185254397       697.3822963496357
0.05095656757182859       698.4413601834566
0.05121520875241573       699.4506677677633
0.05147373831031092       700.4102191025559
0.051732379450133786      701.3200141878347
0.05199135508799517       702.1800530235988
0.05225088727809108       702.990335609849
0.0524948018135407        703.6186840816765
0.052738254137607306      704.1831409162625
0.05298142875495131       704.6837061136064
0.05322451080259058       705.1203796737084
0.0534676856289722        705.4931615965689
0.05371113837063701       705.8020518821872
0.05395505353129665       706.047050530564
0.05416697597743634       706.1865675859078
0.054378594840622414      706.2811612846695
0.05459003136031263       706.3308316268484
0.05480140708972696       706.335578612445
0.05501284368692898       706.2954022414594
0.0552244627050051        706.2103025138912
0.05543638538314697       706.0802794297406
