% Model:              brazing.mph
% Version:            COMSOL 5.3.0.223
% Date:               Oct 24 2018, 01:09
% Dimension:          1
% Nodes:              225
% Expressions:        1
% Description:        Line graph
% x                       Height
0                         682.4224771462618
2.02242572596226E-4       682.4139127790073
4.040113375593453E-4      682.341700395803
6.054635867748898E-4      682.2058399966487
8.067573541103817E-4      682.0063315815446
0.0010080510467017985     681.7431751504907
0.001209503071861434      681.416370703487
0.0014112714639836859     681.0259182405334
0.001613513515825394      680.5718177616299
0.001815803045808458      680.1680369398409
0.0020176184164428694     679.7173827856409
0.0022191170764546647     679.21985529903
0.0024204572175778446     678.675454480008
0.00262179740518867       678.0841803285753
0.002823296204553664      677.4460328447315
0.0030251118070788686     676.7610120284767
0.003227401660948015      676.0291178798108
0.0034297372965816655     675.3187123820303
0.003631598594156443      674.5710516669759
0.0038331430353414214     673.7861357346476
0.004034528845142556      672.9639645850455
0.004235914622467191      672.1045382181695
0.004437458966299354      671.2078566340195
0.004639320101874085      670.2739198325959
0.004841655511239337      669.3027278138983
0.005043918276497792      668.4182893727537
0.005245706959792293      667.5214282952116
0.0054471789681153834     666.6121445812719
0.00564849245128538       665.6904382309345
0.005849805932728159      664.7563092441994
0.006051277935873691      663.8097576210669
0.00625306661055245       662.8507833615365
0.006455329363777148      661.8793864656085
0.0066576887471433525     660.9379524260198
0.0068595736811967985     660.0148264112905
0.007061141707903535      659.110008421421
0.007262551112883539      658.2234984564107
0.007463960555734714      657.35529651626
0.007665528695965537      656.5054026009688
0.00786741381892875       655.673816710537
0.0080697734661485        654.8605388449647
0.008272395437950266      654.1292555728721
0.008474540847339949      653.4204242282931
0.008676367906616744      652.7340448112276
0.008878035577337231      652.0701173216755
0.009079703197965442      651.4286417596371
0.009281530107084053      650.809618125112
0.00948367526660416       650.2130464181006
0.009686296889411194      649.6389266386026
0.009888748367913874      649.2729412223364
0.010090724718905934      648.9447472695479
0.010292383720552634      648.6543447802371
0.010493883896490891      648.4017337544043
0.010695384145210549      648.1869141920492
0.010897043365029401      648.0098860931718
0.011099020079070253      647.8706494577723
0.011301472064648224      647.7692042858505
0.011503924099142101      647.7717084942076
0.011705900863193036      647.8132216105416
0.011907560133099505      647.8937436348529
0.012109060430962503      648.0132745671409
0.012310560654077738      648.171814407406
0.012512219699917606      648.3693631556483
0.012714196091111104      648.6059208118675
0.012916647604829811      648.8814873760639
0.013119269382981878      649.3094755591759
0.013321414683399362      649.7685725376189
0.013523241722808088      650.2587783113929
0.013724909467002238      650.7800928804979
0.013926577258472442      651.3325162449339
0.014128404439597363      651.916048404701
0.014330549975836581      652.5306893597991
0.01453317208336263       653.1764391102282
0.014735531766219815      653.892360333362
0.014937416940401616      654.620557747388
0.015138985143475461      655.3610313523063
0.015340394656791169      656.1137811481169
0.015541804135826716      656.8788071348197
0.015743372236141022      657.6561093124146
0.015945257239325793      658.445687680902
0.01614761668334845       659.2475422402815
0.01634987940592303       660.1678519679776
0.016551668047823844      661.0751679308893
0.016753140015983766      661.9694901290163
0.0169544534601584        662.850818562359
0.017155766903708087      663.7191532309171
0.017357238869994664      664.5744941346908
0.017559027508778132      665.4168412736801
0.01776129022699866       666.2461946478846
0.017963625484858744      667.1031798636933
0.018165486461237414      667.9355476542886
0.018367030641941378      668.7432980196705
0.018568416255992027      669.5264309598391
0.018769801906169285      670.2849464747942
0.018971346195167795      671.0188445645362
0.019173207351754082      671.7281252290647
0.019375542861313405      672.4127884683799
0.019577832661189145      673.1193109949243
0.019779648217873542      673.773370839301
0.019981146975907166      674.3749680015103
0.020182487123025287      674.9241024815519
0.020383827220813066      675.420774279426
0.020585325830972126      675.8649833951325
0.020787141141585735      676.2567298286715
0.020989430597769934      676.5960135800427
0.021191672662378012      677.0447130225165
0.021393441061935803      677.4296557305597
0.02159489309031221       677.7508417041726
0.021796186783028852      678.0082709433549
0.021997480548535182      678.2019434481068
0.022198932795108938      678.3318592184281
0.022400701557758636      678.398018254319
0.02260294412950465       678.4004205557795
0.02280539620920995       678.4501120211112
0.023007373018156245      678.4337531703278
0.02320903233274668       678.3513440034294
0.023410532675187733      678.2028845204161
0.023612032942881025      677.9883747212878
0.023813692033404853      677.7078146060445
0.024015668469493705      677.361204174686
0.024218120028423832      676.9485434272127
0.024420742013481003      676.5613958943602
0.02462288751935683       676.1204422136333
0.02482471476325633       675.6256823850322
0.02502638271145666       675.0771164085565
0.025228050706933344      674.4747442842066
0.025429878092549915      673.8185660119825
0.025632023834248962      673.108581591884
0.025834646148682177      672.3447910239112
0.026037006051731277      671.5786156955834
0.026238891444565628      670.772007065989
0.02644045986526205       669.924965135128
0.026641869595683754      669.0374899030003
0.02684327929182417       668.109581369606
0.027044847609757647      667.1412395349452
0.02724673283158932       666.1324643990175
0.027449092495796006      665.0832559618235
0.02765135518998453       664.0662237925226
0.027853143803698084      663.0403195960569
0.028054615743803996      662.0055433724265
0.028255929159991804      660.9618951216313
0.028457242575555555      659.9093748436713
0.028658714513790734      658.8479825385466
0.028860503124391312      657.7777182062573
0.029062765814231884      656.6985818468031
0.029265100752448706      655.6254106830348
0.02946696141141544       654.5777042249638
0.029668505276199596      653.5554624725901
0.029869890575077548      652.5586854259136
0.03007127591008127       651.5873730849345
0.030272819883157453      650.6415254496527
0.03047468072232762       649.7211425200684
0.030677015912237836      648.8262242961813
0.030879305594778746      648.0090168534571
0.03108112103494649       647.2284903111963
0.031282619677010744      646.4846446693989
0.03148395970843373       645.777479928065
0.0316852996905265        645.1069960871944
0.031886798184716555      644.4731931467873
0.032088613378814135      643.8760711068434
0.03229090271766436       643.3156299673631
0.03249314477533616       642.9445719378656
0.03269491316800606       642.6273491516399
0.03289636518952694       642.3639616086862
0.03309765887540427       642.1544093090041
0.033298952634071295      641.998692252594
0.033500404873789524      641.8968104394555
0.03370217362955133       641.8487638695891
0.03390441619436107       641.8545525429944
0.03410686840969767       641.9661926095546
0.03430884535332711       642.1320193318397
0.0345105048019665        642.3520327098497
0.034712005278138794      642.6262327435848
0.03491350567956333       642.9546194330447
0.03511516490413611       643.3371927782297
0.035317141474908095      643.7739527791397
0.03551959316946952       644.2648994357745
0.035722216260139425      644.9018995196512
0.03592436286389621       645.5803093474099
0.036126191200505704      646.3001289190506
0.03632786023882611       647.0613582345733
0.03652952932442421       647.8639972939778
0.036731357802754806      648.7080460972644
0.03693350464234149       649.593504644433
0.03713612806239678       650.5203729354836
0.03733848789969145       651.510354849737
0.037540373227224554      652.5202583627598
0.03774194158292153       653.5500834745519
0.03794335124849304       654.5998301851134
0.03814476087977932       655.6694984944443
0.03834632913270157       656.7590884025448
0.03854821428921239       657.8685999094143
0.038750573887637245      658.9980330150534
0.03895283596123875       660.1972886822716
0.039154623958694366      661.3827984069384
0.039356095285438375      662.5545621890534
0.03955740808971597       663.7125800286169
0.03975872089337115       664.8568519256289
0.03996019221824938       665.987377880089
0.04016198021260023       667.1041578919978
0.04036424228186526       668.2071919613549
0.040566577948397485      669.2966960012341
0.040768439330593605      670.3511554053415
0.04096998391520435       671.370570173677
0.04117136993220262       672.3549403062407
0.04137275598532357       673.3042658030324
0.04157430067821714       674.2185466640523
0.04177616224060133       675.0977828893006
0.0419784981588055        675.9419744787766
0.04218078754816035       676.7717281495591
0.04238260269718259       677.5380722845526
0.04258410104946696       678.2410068837572
0.04278544079179545       678.8805319471729
0.04298678048479618       679.4566474747999
0.043188278689213704      679.9693534666377
0.043390093592177985      680.4186499226869
0.04359238263785921       680.8045368429471
0.043794623705544454      681.24946742643
0.04399639111513442       681.625058568322
0.04419784215819482       681.9313102686228
0.04439913486792596       682.1682225273327
0.044600427650446826      682.3357953444515
0.04480187891170468       682.4340287199793
0.045003646684386715      682.4629226539159
0.04520588825921017       682.4224771462618
