% Model:              brazing.mph
% Version:            COMSOL 5.3.0.223
% Date:               Oct 24 2018, 03:16
% Dimension:          1
% Nodes:              161
% Expressions:        1
% Description:        Line graph
% x                       Height
0                         656.932623028334
1.9693985890610136E-4     656.8985542773486
3.9298030043864816E-4     656.8756640826301
5.884188308682271E-4      656.8639524441785
7.835557095112735E-4      656.8634193619939
9.786925881542028E-4      656.8740648360763
0.0011741311185834375     656.8958888664256
0.0013701715601154056     656.9288914530418
0.0015671114190207022     656.9730725959251
0.0017642608961497635     656.7345506319344
0.0019605081241513326     656.4913943419643
0.0021561515411346144     656.2436037260143
0.002351492352702621      655.9911787840847
0.0025468331642698894     655.7341195161754
0.0027424765812509564     655.4724259222863
0.0029387238092488436     655.2060980024177
0.0031358732863727766     654.9351357565694
0.0033326885608882563     654.5654543195129
0.0035286060983021257     654.1999394290177
0.0037239228519497995     653.8385910850837
0.003918938519653848      653.4814092877109
0.004113954187357973      653.1283940368993
0.004309270941005876      652.7795453326491
0.004505188478420127      652.4348631749601
0.004702003752936137      652.0943475638323
0.004899138702461749      651.7445906920564
0.005095371599302965      651.4109220666844
0.005291000816927052      651.0933416877161
0.005486327495291825      650.7918495551518
0.005681654173656831      650.5064456689913
0.0058772833912816074     650.2371300292348
0.0060735162881239745     649.9839026358819
0.006270651237651189      649.7467634889331
0.006467582778148322      649.5682837781252
0.006663615013526554      649.4229094276836
0.006859045413116663      649.3106404376083
0.0070541741987231454     649.2314768078994
0.007249302984329781      649.1854185385569
0.007444733383920351      649.1724656295805
0.007640765619299351      649.1926180809705
0.007837697159797551      649.2458758927269
0.008034634474091872      649.2401021654396
0.008230672405352359      649.2716880229985
0.008426108448549354      649.3406334654042
0.008621242851524007      649.4469384926558
0.008816377254498534      649.5906031047539
0.009011813297695145      649.7716273016982
0.009207851228955002      649.9900110834891
0.00940478854324844       650.2457544501261
0.00960192671152544       650.5655294880419
0.00979816278359587       650.8997792813591
0.009993795147248338      651.2485038300781
0.010189124956984269      651.6117031341985
0.010384454766719743      651.9893771937203
0.010580087130370853      652.3815260086438
0.010776323202439026      652.7881495789688
0.01097346137071288       653.2092479046954
0.011170281912174305      653.5888710753762
0.011366204645540166      653.9777750460893
0.011561526547508357      654.375959816834
0.011756547339625332      654.7834253876107
0.011951568131742307      655.2001717584193
0.0121468900337105        655.6261989292599
0.012342812767076368      656.0615069001325
0.0125396333085378        656.5060956710369
0.012736771215691979      656.79963765814
0.012933007030171178      657.0906594822595
0.013128639138602195      657.3791611433957
0.013323968694306592      657.6651426415482
0.013519298250011432      657.9486039767171
0.013714930358443784      658.2295451489025
0.0139111661729252        658.5079661581044
0.014108304080082462      658.7838670043227
0.014305241249097643      658.7791364679508
0.014501279037039759      658.7774705351825
0.014696714938233999      658.7788692060178
0.014891849199866372      658.7833324804567
0.015086983461498874      658.7908603584993
0.015282419362693495      658.8014528401455
0.01547845715063625       658.8151099253953
0.015675394319652317      658.8318316142487
0.015872325504405583      658.4524227129943
0.01606835738884011       658.0782967767369
0.016263787440706973      657.7094538054766
0.016458915880206496      657.3458937992134
0.016654044319705866      656.9876167579473
0.016849474371572262      656.6346226816783
0.017045506256006017      656.2869115704062
0.017242437440758204      655.9444834241314
0.01743957168037589       655.3765344701403
0.017635803876907424      654.7982945267235
0.01783143240066149       654.2097635938808
0.018026758388388308      653.6109416716124
0.01822208437611492       653.0018287599182
0.01841771289986836       652.3824248587982
0.018613945096398854      651.7527299682524
0.018811079336015085      651.1127440882809
0.019007894687321662      650.4401910092159
0.01920381230049143       649.7693328861337
0.019399129129200405      649.100169719034
0.01959414487161704       648.4327015079172
0.01978916061403359       647.7669282527829
0.01998447744274231       647.1028499536313
0.020180395055911654      646.4404666104624
0.020377210407217645      645.7797782232763
0.020574360469106157      645.1883470782612
0.020770608273960874      644.6177151539678
0.020966252262493188      644.0678824503958
0.021161593642948652      643.5388489675454
0.021356935023404883      643.0306147054166
0.021552579011939476      642.5431796640095
0.021748826816797996      642.0765438433237
0.021945976878691802      641.6307072433597
0.022142917141692885      641.292964663622
0.022338957981867254      640.9993549434506
0.022534396907280062      640.7498780828454
0.02272953417907009       640.5445340818064
0.02292467145086023       640.3833229403338
0.02312011037627338       640.2662446584274
0.02331615121644832       640.1932992360872
0.023513091479450195      640.1644866733133
0.023710025135207962      640.0960135922954
0.02390605945730262       640.0770857269541
0.024101491924457957      640.1077030772889
0.024296622768016963      640.1878656433003
0.024491753611575823      640.3175734249879
0.02468718607873073       640.4968264223519
0.024883220400824673      640.7256246353924
0.025080154056581445      641.003968064109
0.025277299572591536      641.3968523942023
0.025473542893039384      641.8109375838136
0.02566918243840792       642.2462236329433
0.025864519396400307      642.702710541591
0.026059856354392216      643.1803983097569
0.026255495899759323      643.679286937441
0.026451739220204794      644.1993764246431
0.026648884736211575      644.7406667713635
0.02684569473774919       645.3344305082613
0.027041607073256636      645.9333780631115
0.027236918672681274      646.5375094359136
0.027431929210095855      647.146824626668
0.027626939747510428      647.7613236353745
0.027822251346935042      648.3810064620333
0.028018163682442445      649.005873106644
0.028214973683980002      649.6359235692071
0.028412120943583204      650.2411875816603
0.028608365984047285      650.8343407349998
0.02880400723361381       651.415383029226
0.02899934588786498       651.9843144643384
0.02919468454211669       652.5411350403372
0.029390325791684838      653.0858447572225
0.02958657083215161       653.6184436149941
0.029783718091758563      654.1389316136522
0.029980652759780888      654.4884658229931
0.030176688080480362      654.837907808761
0.030372121537075924      655.1872575709558
0.03056725336547531       655.5365151095775
0.030762385193874833      655.8856804246262
0.030957818650470807      656.2347535161019
0.031153853971170976      656.5837343840045
0.031350788639194264      656.932623028334
