% Model:              brazing.mph
% Version:            COMSOL 5.3.0.223
% Date:               Oct 24 2018, 04:41
% Dimension:          1
% Nodes:              225
% Expressions:        1
% Description:        Line graph
% x                       Height
0                         709.8370853284545
2.02242572596226E-4       709.836314190798
4.040113375593453E-4      709.7675551031756
6.054635867748898E-4      709.6308080655873
8.067573541103817E-4      709.4260730780333
0.0010080510467017985     709.1533501405132
0.001209503071861434      708.8126392530273
0.0014112714639836859     708.4039404155754
0.001613513515825394      707.9272536281577
0.001815803045808458      707.527524482862
0.0020176184164428694     707.0777499087378
0.0022191170764546647     706.5779299057854
0.0024204572175778446     706.0280644740046
0.00262179740518867       705.4281536133956
0.002823296204553664      704.778197323958
0.0030251118070788686     704.0781956056924
0.003227401660948015      703.3281484585982
0.0034297372965816655     702.6059738742985
0.003631598594156443      701.8431142526885
0.0038331430353414214     701.039569593768
0.004034528845142556      700.1953398975371
0.004235914622467191      699.3104251639958
0.004437458966299354      698.3848253931443
0.004639320101874085      697.4185405849822
0.004841655511239337      696.4115707395097
0.005043918276497792      695.5206266683641
0.005245706959792293      694.614376731387
0.0054471789681153834     693.6928209285784
0.00564849245128538       692.7559592599382
0.005849805932728159      691.8037917254666
0.006051277935873691      690.8363183251635
0.00625306661055245       689.8535390590288
0.006455329363777148      688.8554539270625
0.0066576887471433525     687.8890552162919
0.0068595736811967985     686.9406757481522
0.007061141707903535      686.0103155226435
0.007262551112883539      685.0979745397658
0.007463960555734714      684.203652799519
0.007665528695965537      683.3273503019033
0.00786741381892875       682.4690670469183
0.0080697734661485        681.6288030345645
0.008272395437950266      680.8830208982678
0.008474540847339949      680.1562416772671
0.008676367906616744      679.4484653715622
0.008878035577337231      678.7596919811532
0.009079703197965442      678.0899215060402
0.009281530107084053      677.4391539462231
0.00948367526660416       676.8073893017018
0.009686296889411194      676.1946275724766
0.009888748367913874      675.8269334457972
0.010090724718905934      675.4947485815
0.010292383720552634      675.1980729795848
0.010493883896490891      674.9369066400517
0.010695384145210549      674.7112495629008
0.010897043365029401      674.5211017481319
0.011099020079070253      674.3664631957452
0.011301472064648224      674.2473339057404
0.011503924099142101      674.2437964370085
0.011705900863193036      674.2773557027564
0.011907560133099505      674.3480117029836
0.012109060430962503      674.4557644376907
0.012310560654077738      674.6006139068775
0.012512219699917606      674.7825601105437
0.012714196091111104      675.0016030486897
0.012916647604829811      675.2577427213154
0.013119269382981878      675.6905626269987
0.013321414683399362      676.1531272520458
0.013523241722808088      676.6454365964568
0.013724909467002238      677.1674906602317
0.013926577258472442      677.7192894433705
0.014128404439597363      678.300832945873
0.014330549975836581      678.9121211677397
0.01453317208336263       679.5531541089699
0.014735531766219815      680.2734149587428
0.014937416940401616      681.0036613982405
0.015138985143475461      681.7438934274631
0.015340394656791169      682.4941110464105
0.015541804135826716      683.2543142550827
0.015743372236141022      684.0245030534797
0.015945257239325793      684.8046774416017
0.01614761668334845       685.5948374194486
0.01634987940592303       686.5330557264251
0.016551668047823844      687.4560622305223
0.016753140015983766      688.3638569317399
0.0169544534601584        689.256439830078
0.017155766903708087      690.1338109255364
0.017357238869994664      690.9959702181158
0.017559027508778132      691.8429177078153
0.01776129022699866       692.6746533946354
0.017963625484858744      693.5361270015263
0.018165486461237414      694.3726104379499
0.018367030641941378      695.1841037039059
0.018568416255992027      695.9706067993943
0.018769801906169285      696.7321197244153
0.018971346195167795      697.468642478969
0.019173207351754082      698.1801750630548
0.019375542861313405      698.8667174766732
0.019577832661189145      699.5861960026729
0.019779648217873542      700.2486612027926
0.019981146975907166      700.8541130770325
0.020182487123025287      701.4025516253923
0.020383827220813066      701.8939768478723
0.020585325830972126      702.3283887444725
0.020787141141585735      702.7057873151924
0.020989430597769934      703.0261725600328
0.021191672662378012      703.4982127529014
0.021393441061935803      703.9024045498628
0.02159489309031221       704.2387479509173
0.021796186783028852      704.5072429560646
0.021997480548535182      704.7078895653048
0.022198932795108938      704.8406877786379
0.022400701557758636      704.9056375960641
0.02260294412950465       704.9027390175829
0.02280539620920995       704.9584276506553
0.023007373018156245      704.9441049565938
0.02320903233274668       704.8597709353982
0.023410532675187733      704.7054255870687
0.023612032942881025      704.4810689116053
0.023813692033404853      704.1867009090078
0.024015668469493705      703.8223215792763
0.024218120028423832      703.387930922411
0.024420742013481003      703.007659157691
0.02462288751935683       702.5708447092801
0.02482471476325633       702.0774875771783
0.02502638271145666       701.5275877613855
0.025228050706933344      700.9211452619019
0.025429878092549915      700.2581600787271
0.025632023834248962      699.5386322118615
0.025834646148682177      698.7625616613047
0.026037006051731277      697.9920392881945
0.026238891444565628      697.1785914698889
0.02644045986526205       696.322218206388
0.026641869595683754      695.4229194976917
0.02684327929182417       694.4806953438002
0.027044847609757647      693.4955457447131
0.02724673283158932       692.4674707004309
0.027449092495796006      691.3964702109532
0.02765135518998453       690.382488530255
0.027853143803698084      689.3577606456514
0.028054615743803996      688.3222865571421
0.028255929159991804      687.2760662647273
0.028457242575555555      686.2190997684069
0.028658714513790734      685.151387068181
0.028860503124391312      684.0729281640496
0.029062765814231884      682.9837230560124
0.029265100752448706      681.900473002529
0.02946696141141544       680.8430360394804
0.029668505276199596      679.8114121668665
0.029869890575077548      678.8056013846874
0.03007127591008127       677.8256036929431
0.030272819883157453      676.8714190916337
0.03047468072232762       675.9430475807587
0.030677015912237836      675.0404891603189
0.030879305594778746      674.227574011357
0.03108112103494649       673.4487597402397
0.031282619677010744      672.7040463469668
0.03148395970843373       671.9934338315386
0.0316852996905265        671.3169221939548
0.031886798184716555      670.6745114342158
0.032088613378814135      670.0662015523213
0.03229090271766436       669.4919925482715
0.03249314477533616       669.1411493944698
0.03269491316800606       668.8424899134232
0.03289636518952694       668.5960141051313
0.03309765887540427       668.4017219695945
0.033298952634071295      668.2596135068126
0.033500404873789524      668.1696887167856
0.03370217362955133       668.1319475995134
0.03390441619436107       668.1463901549962
0.03410686840969767       668.2776772665629
0.03430884535332711       668.4616508713401
0.0345105048019665        668.698310969328
0.034712005278138794      668.9876575605263
0.03491350567956333       669.3296906449351
0.03511516490413611       669.7244102225545
0.035317141474908095      670.1718162933845
0.03551959316946952       670.671908857425
0.035722216260139425      671.3401089338746
0.03592436286389621       672.0483963962248
0.036126191200505704      672.7967712444757
0.03632786023882611       673.5852334786272
0.03652952932442421       674.4137830986795
0.036731357802754806      675.2824201046321
0.03693350464234149       676.1911444964855
0.03713612806239678       677.1399562742397
0.03733848789969145       678.1606334171735
0.037540373227224554      679.1995300976602
0.03774194158292153       680.2566463157001
0.03794335124849304       681.331982071293
0.03814476087977932       682.4255373644392
0.03834632913270157       683.5373121951382
0.03854821428921239       684.6673065633902
0.038750573887637245      685.8155204691955
0.03895283596123875       687.0543621639904
0.039154623958694366      688.2772309218168
0.039356095285438375      689.4841267426749
0.03955740808971597       690.6750496265646
0.03975872089337115       691.8499995734859
0.03996019221824938       693.0089765834385
0.04016198021260023       694.151980656423
0.04036424228186526       695.2790117924388
0.040566577948397485      696.3922910065362
0.040768439330593605      697.4694810146267
0.04096998391520435       698.5105818167101
0.04117136993220262       699.5155934127866
0.04137275598532357       700.484515802856
0.04157430067821714       701.4173489869187
0.04177616224060133       702.3140929649741
0.0419784981588055        703.1747477370226
0.04218078754816035       704.031365160405
0.04238260269718259       704.8194743145385
0.04258410104946696       705.5390751994232
0.04278544079179545       706.1901678150589
0.04298678048479618       706.7727521614456
0.043188278689213704      707.2868282385836
0.043390093592177985      707.7323960464726
0.04359238263785921       708.1094555851128
0.043794623705544454      708.5841884553538
0.04399639111513442       708.9849844249311
0.04419784215819482       709.3118434938444
0.04439913486792596       709.564765662094
0.044600427650446826      709.7437509296798
0.04480187891170468       709.8487992966018
0.045003646684386715      709.87991076286
0.04520588825921017       709.8370853284545
