% Model:              brazing.mph
% Version:            COMSOL 5.3.0.223
% Date:               Oct 24 2018, 00:21
% Dimension:          1
% Nodes:              225
% Expressions:        1
% Description:        Line graph
% x                       Height
0                         633.8920709941659
2.1191841480136804E-4     633.8043327604871
4.2353438892247565E-4     633.6790270130754
6.349689892252786E-4      633.5161537519306
8.463435942227858E-4      633.315712977053
0.001057779685752053      633.0777046884426
0.001269398639759412      632.802128886099
0.001481321517995422      632.4889855700227
0.0017252358262731596     632.0702957171421
0.0019686866163640313     631.6225670294459
0.0022118589563155885     631.1457995069337
0.002454938550168189      630.6399931496057
0.0026981113144448556     630.1051479574621
0.0029415629522145732     629.5412639305025
0.0031854785295931678     628.9483410687272
0.0034450106912723537     628.2123456012885
0.0037039863009040125     627.4464624006307
0.003962627412610827      626.6506914667539
0.0042211569424298        625.8250327996581
0.004479798094906585      624.9694863993435
0.004738773785972872      624.0840522658098
0.004998306069542035      623.1687303990572
0.005274868491808245      622.0906133744259
0.005550758931995686      620.9963149334438
0.0058262454501036105     619.8858350761112
0.006101597285810183      618.7591738024281
0.006377084073678616      617.6163311123946
0.006652975052596927      616.4573070060103
0.006929538280995558      615.2821014832755
0.007206101510950518      614.0597736505177
0.007481992491406557      612.8551715104962
0.007757479280801014      611.6682950632113
0.00803283111802884       610.4991443086627
0.008308317637660222      609.3477192468509
0.008584208079380276      608.2140198777754
0.008860770503195153      607.0980462014364
0.009120302815147717      606.0485050916301
0.00937927853441616       605.0399455682543
0.009637919714987194      604.072367631309
0.009896449272866283      603.1457712807941
0.010155090412673047      602.2601565167101
0.010414066050518256      601.4155233390562
0.01067359824059789       600.611871747833
0.010917512776055054      599.8794715422999
0.011160965100129169      599.1975987731184
0.011404139717480647      598.5662534402884
0.01164722176512739       597.9854355438098
0.011890396591516505      597.455145083683
0.012133849333188814      596.9753820599072
0.012377764493855997      596.5461464724833
0.01258968694000722       596.2150420729853
0.012801305803204788      595.9240548614148
0.013012742322906452      595.6731848377717
0.013224118052332232      595.4624320020564
0.01343555464954572       595.2917963542689
0.013647173667633327      595.1612778944086
0.013859096345786744      595.070876622476
0.014071014760598048      595.0371945174364
0.014282630734729056      595.0427572828902
0.01449406533504172       595.087564918837
0.014705439940049088      595.171617425277
0.014916876031588231      595.2949148022105
0.015128494985605482      595.4574570496369
0.015340417863851432      595.6592441675567
0.01558433217214941       595.9086680379518
0.015827782962260412      596.2159316836235
0.016070955302232025      596.5810351045718
0.016314034896104664      597.0039783007969
0.0165572076604014        597.4847612722989
0.01680065929819124       598.0233840190772
0.01704457487559009       598.6198465411325
0.01730410703726679       599.2691964498202
0.017563082646895985      599.9583207003375
0.01782172375860034       600.6872192926837
0.018080253288416847      601.4558922268592
0.01833889444089119       602.2643395028643
0.018597870131955005      603.1125611206984
0.018857402415521692      604.0005570803619
0.019133964837753384      604.9502213223462
0.019409855277906563      605.9182362237499
0.019685341795980367      606.9046017845731
0.019960693631652874      607.9093180048156
0.0202361804194872        608.9323848844779
0.020512071398371242      609.9738024235593
0.020788634626735362      611.0335706220603
0.02106519785666259       612.0638979675609
0.021341088837091095      613.0828456674642
0.021616575626458134      614.09041372177
0.02189192746365859       615.0866021304784
0.022167413983262562      616.0714108935897
0.02244330442495508       617.0448400111031
0.022719866848742224      618.0068894830194
0.022979399160698737      618.8070798695827
0.023238374879971102      619.5867931382189
0.023497016060546046      620.3460292889282
0.023755545618429033      621.0847883217104
0.02401418675823971       621.8030702365662
0.024273162396088833      622.5008750334946
0.024532694586172417      623.1782027124964
0.02477660912165014       623.7348652409231
0.02502006144574469       624.2593872238043
0.025263236063116538      624.7517686611399
0.025506318110783622      625.2120095529299
0.025749492937193107      625.6401098991747
0.02599294567888585       626.0360696998737
0.026236860839573585      626.3998889550272
0.026448783285734738      626.6609301602499
0.02666040214894219       626.9054961945759
0.026871838668653707      627.133587058005
0.027083214398089334      627.3452027505373
0.027294650995312687      627.5403432721731
0.027506270013410168      627.7190086229116
0.02771819269157351       627.8811988027536
0.02793011110637494       627.9508681809118
0.028141727080496122      628.0027584513517
0.028353161680798985      628.0368696140732
0.028564536285796558      628.0532016690765
0.028775972377325904      628.0517546163618
0.028987591331333325      628.0325284559284
0.029199514209569403      627.9955231877769
0.02944342851784522       627.8220493821818
0.02968687930793418       627.6071082038874
0.02993005164788383       627.3506996528936
0.030173131241734534      627.0528237292003
0.0304163040060093        626.7134804328081
0.0306597556437771        626.332669763716
0.030903671221153783      625.9103917219248
0.031163203382828072      625.3002481095623
0.03142217899245488       624.6465423983315
0.03168082010415685       623.9492745882321
0.03193934963397098       623.2084446792645
0.032197990786442934      622.4240526714287
0.03245696647750436       621.5960985647245
0.032716498761068635      620.7245823591519
0.03299306118333142       619.6166944580032
0.03326895162351545       618.4889662387363
0.03354443814161999       617.3413977013513
0.03381978997732317       616.1739888458482
0.034095276765188226      614.9867396722271
0.03437116774410313       613.7796501804877
0.03464773097249833       612.5527203706303
0.034924294202460265      611.2480642846093
0.03520018518292322       609.963998321739
0.03547567197232456       608.7005224820196
0.035751023809559274      607.4576367654508
0.036026510329197556      606.2353411720333
0.036302400770924524      605.0336357017662
0.03657896319474637       603.8525203546502
0.036838495506703706      602.738364883665
0.03709747122597688       601.676246710311
0.037356112406552636      600.6661658345884
0.03761464196443644       599.7081222564971
0.03787328310424792       598.8021159760375
0.03813225874209787       597.948146993209
0.03839179093218227       597.1462153080121
0.03863570546763781       596.4188722774156
0.038879157791710306      595.754407944345
0.03912233240906017       595.1528223087998
0.03936541445670531       594.6141153707804
0.039608589283092806      594.138287130287
0.039852042024763494      593.725337587319
0.04009595718542905       593.3752667418769
0.040307879631580334      593.1052372995802
0.04051949849477797       592.885258331614
0.0407309350144797        592.7153298379782
0.040942310743905544      592.5954518186732
0.04115374734111909       592.525624273699
0.04136536635920676       592.505847203055
0.04157728903736024       592.536120606742
0.04178920745215007       592.6227003838428
0.042000823426259694      592.7578726977551
0.042212258026551035      592.9416375484789
0.04242363263153709       593.1739949360141
0.0426350687230549        593.454944860361
0.042846687677050764      593.7844873215192
0.04305861055527523       594.162622319489
0.04330252486354604       594.6226516230706
0.043545975653630026      595.1492549966973
0.04378914799357473       595.7424324403688
0.044032227587420474      596.402183954085
0.04427540035169028       597.1285095378465
0.04451885198945311       597.9214091916525
0.044762767566824783      598.7808829155036
0.045022299728516735      599.7235256471644
0.04528127533816108       600.7121661780716
0.045539916449880535      601.7468045082251
0.045798445979712124      602.8274406376252
0.046057087132201545      603.954074566272
0.04631606282328052       605.1267062941648
0.046575595106862454      606.3453358213044
0.04685215752913061       607.6408758521542
0.04712804796931999       608.9601444622647
0.04740353448742985       610.3031416516357
0.04767888632313835       611.6698674202673
0.04795437311100872       613.0603217681601
0.048230264089928976      614.4745046953128
0.048506827318329566      615.9124162017265
0.04878339054829114       617.2723248477214
0.049059281528753745      618.6132668939315
0.04933476831815475       619.9352423403566
0.0496101201553891        621.238251186997
0.04988560667502701       622.5222934338527
0.05016149711675364       623.7873690809234
0.050438059540575134      625.0334781282096
0.05069759185254397       626.0294445613234
0.05095656757182859       626.9809919734557
0.05121520875241573       627.8881203646062
0.05147373831031092       628.750829734775
0.051732379450133786      629.5691200839625
0.05199135508799517       630.342991412168
0.05225088727809108       631.072443719392
0.0524948018135407        631.6382602036717
0.052738254137607306      632.1471452583189
0.05298142875495131       632.5990988833336
0.05322451080259058       632.9941210787159
0.0534676856289722        633.3322118444661
0.05371113837063701       633.6133711805836
0.05395505353129665       633.8375990870687
0.05416697597743634       633.9653669461421
0.054378594840622414      634.0531394191959
0.05459003136031263       634.1009165062296
0.05480140708972696       634.1086982072435
0.05501284368692898       634.0764845222376
0.0552244627050051        634.0042754512116
0.05543638538314697       633.8920709941659
