% Model:              brazing.mph
% Version:            COMSOL 5.3.0.223
% Date:               Oct 24 2018, 03:41
% Dimension:          1
% Nodes:              161
% Expressions:        1
% Description:        Line graph
% x                       Height
0                         686.7566272395297
1.9693985890610136E-4     686.7177627574838
3.9298030043864816E-4     686.6911359022187
5.884188308682271E-4      686.6767466737342
7.835557095112735E-4      686.6745950720305
9.786925881542028E-4      686.6846810971075
0.0011741311185834375     686.7070047489652
0.0013701715601154056     686.7415660276039
0.0015671114190207022     686.7883649330231
0.0017642608961497635     686.5508087385045
0.0019605081241513326     686.307952015179
0.0021561515411346144     686.0597947630466
0.002351492352702621      685.8063369821072
0.0025468331642698894     685.5475786723607
0.0027424765812509564     685.2835198338075
0.0029387238092488436     685.0141604664473
0.0031358732863727766     684.73950057028
0.0033326885608882563     684.3711353002603
0.0035286060983021257     684.0059767681897
0.0037239228519497995     683.644024974068
0.003918938519653848      683.2852799178953
0.004113954187357973      682.9297415996715
0.004309270941005876      682.5774100193967
0.004505188478420127      682.2282851770709
0.004702003752936137      681.882367072694
0.004899138702461749      681.5331624091223
0.005095371599302965      681.1989874420997
0.005291000816927052      680.879842171626
0.005486327495291825      680.5757265977015
0.005681654173656831      680.2866407203261
0.0058772833912816074     680.0125845394999
0.0060735162881239745     679.7535580552227
0.006270651237651189      679.5095612674945
0.006467582778148322      679.330305183521
0.006663615013526554      679.1836681272958
0.006859045413116663      679.0696500988192
0.0070541741987231454     678.9882510980913
0.007249302984329781      678.9394711251118
0.007444733383920351      678.923310179881
0.007640765619299351      678.9397682623986
0.007837697159797551      678.9888453726649
0.008034634474091872      678.9759451921846
0.008230672405352359      679.0002569977039
0.008426108448549354      679.0617807892231
0.008621242851524007      679.1605165667422
0.008816377254498534      679.2964643302611
0.009011813297695145      679.4696240797797
0.009207851228955002      679.6799958152981
0.00940478854324844       679.9275795368163
0.00960192671152544       680.2453009436422
0.00979816278359587       680.5765724315222
0.009993795147248338      680.9213940004568
0.010189124956984269      681.2797656504459
0.010384454766719743      681.6516873814894
0.010580087130370853      682.0371591935873
0.010776323202439026      682.4361810867397
0.01097346137071288       682.8487530609464
0.011170281912174305      683.2246060326967
0.011366204645540166      683.6092672215254
0.011561526547508357      684.0027366274325
0.011756547339625332      684.4050142504177
0.011951568131742307      684.8161000904813
0.0121468900337105        685.2359941476232
0.012342812767076368      685.6646964218435
0.0125396333085378        686.102206913142
0.012736771215691979      686.3939976687082
0.012933007030171178      686.6827375986566
0.013128639138602195      686.9684267029875
0.013323968694306592      687.2510649817006
0.013519298250011432      687.5306524347959
0.013714930358443784      687.8071890622738
0.0139111661729252        688.0806748641338
0.014108304080082462      688.3511098403762
0.014305241249097643      688.3429154895223
0.014501279037039759      688.3387777352756
0.014696714938233999      688.338696577636
0.014891849199866372      688.3426720166037
0.015086983461498874      688.3507040521787
0.015282419362693495      688.3627926843609
0.01547845715063625       688.3789379131503
0.015675394319652317      688.399139738547
0.015872325504405583      688.0127913900789
0.01606835738884011       687.6331827736914
0.016263787440706973      687.2603138893845
0.016458915880206496      686.8941847371584
0.016654044319705866      686.5347953170128
0.016849474371572262      686.182145628948
0.017045506256006017      685.8362356729638
0.017242437440758204      685.4970654490601
0.01743957168037589       684.9307852962716
0.017635803876907424      684.353818630066
0.01783143240066149       683.7661654504439
0.018026758388388308      683.167825757405
0.01822208437611492       682.5587995509493
0.01841771289986836       681.9390868310769
0.018613945096398854      681.3086875977876
0.018811079336015085      680.6676018510817
0.019007894687321662      679.9993627632597
0.01920381230049143       679.3321691639492
0.019399129129200405      678.6660210531501
0.01959414487161704       678.0009184308625
0.01978916061403359       677.3368612970863
0.01998447744274231       676.6738496518215
0.020180395055911654      676.0118834950682
0.020377210407217645      675.3509628268263
0.020574360469106157      674.7656021959991
0.020770608273960874      674.2002983072528
0.020966252262493188      673.655051160587
0.021161593642948652      673.1298607560021
0.021356935023404883      672.6247270934979
0.021552579011939476      672.1396501730744
0.021748826816797996      671.6746299947316
0.021945976878691802      671.2296665584696
0.022142917141692885      670.8988718383644
0.022338957981867254      670.6119955298906
0.022534396907280062      670.3690376330487
0.02272953417907009       670.1699981478386
0.02292467145086023       670.0148770742601
0.02312011037627338       669.9036744123132
0.02331615121644832       669.8363901619982
0.023513091479450195      669.8130243233148
0.023710025135207962      669.7478067628703
0.02390605945730262       669.7321797594292
0.024101491924457957      669.7661433129916
0.024296622768016963      669.8496974235575
0.024491753611575823      669.9828420911268
0.02468718607873073       670.1655773156997
0.024883220400824673      670.3979030972761
0.025080154056581445      670.6798194358558
0.025277299572591536      671.0815652121871
0.025473542893039384      671.5036122947362
0.02566918243840792       671.9459606835032
0.025864519396400307      672.4086103784881
0.026059856354392216      672.891561379691
0.026255495899759323      673.3948136871118
0.026451739220204794      673.9183673007504
0.026648884736211575      674.462222220607
0.02684569473774919       675.0632402428489
0.027041607073256636      675.6687107697044
0.027236918672681274      676.2786338011729
0.027431929210095855      676.8930093372547
0.027626939747510428      677.5118373779499
0.027822251346935042      678.1351179232581
0.028018163682442445      678.7628509731796
0.028214973683980002      679.3950365277145
0.028412120943583204      680.007523147533
0.028608365984047285      680.6069302002294
0.02880400723361381       681.1932576858035
0.02899934588786498       681.7665056042554
0.02919468454211669       682.3266739555851
0.029390325791684838      682.8737627397926
0.02958657083215161       683.4077719568779
0.029783718091758563      683.9287016068411
0.029980652759780888      684.2803997904111
0.030176688080480362      684.6326101227003
0.030372121537075924      684.9853326037082
0.03056725336547531       685.3385672334348
0.030762385193874833      685.6923140118803
0.030957818650470807      686.0465729390446
0.031153853971170976      686.4013440149278
0.031350788639194264      686.7566272395297
