% Model:              brazing.mph
% Version:            COMSOL 5.3.0.223
% Date:               Oct 24 2018, 06:19
% Dimension:          1
% Nodes:              161
% Expressions:        1
% Description:        Line graph
% x                       Height
0                         750.4364060776501
1.9693985890610136E-4     750.3755068957146
3.9298030043864816E-4     750.3310547244142
5.884188308682271E-4      750.3030495637488
7.835557095112735E-4      750.2914914137183
9.786925881542028E-4      750.2963802743229
0.0011741311185834375     750.3177161455625
0.0013701715601154056     750.3554990274371
0.0015671114190207022     750.4097289199467
0.0017642608961497635     750.1770948995213
0.0019605081241513326     749.9410115290026
0.0021561515411346144     749.7014788083904
0.002351492352702621      749.4584967376849
0.0025468331642698894     749.2120653168857
0.0027424765812509564     748.9621845459932
0.0029387238092488436     748.708854425007
0.0031358732863727766     748.4520749539274
0.0033326885608882563     748.1058166997616
0.0035286060983021257     747.7628450783886
0.0037239228519497995     747.4231600898088
0.003918938519653848      747.0867617340219
0.004113954187357973      746.753650011028
0.004309270941005876      746.4238249208271
0.004505188478420127      746.0972864634192
0.004702003752936137      745.7740346388042
0.004899138702461749      745.4497119700269
0.005095371599302965      745.1391250412923
0.005291000816927052      744.8422738526009
0.005486327495291825      744.5591584039523
0.005681654173656831      744.2897786953466
0.0058772833912816074     744.0341347267839
0.0060735162881239745     743.7922264982641
0.006270651237651189      743.5640540097871
0.006467582778148322      743.4016949993547
0.006663615013526554      743.2694069617321
0.006859045413116663      743.1671898969191
0.0070541741987231454     743.0950438049158
0.007249302984329781      743.0529686857224
0.007444733383920351      743.0409645393385
0.007640765619299351      743.0590313657644
0.007837697159797551      743.1071691650001
0.008034634474091872      743.0876638541588
0.008230672405352359      743.1032189508115
0.008426108448549354      743.1538344549583
0.008621242851524007      743.2395103665989
0.008816377254498534      743.3602466857335
0.009011813297695145      743.5160434123621
0.009207851228955002      743.7069005464847
0.00940478854324844       743.9328180881013
0.00960192671152544       744.229335516691
0.00979816278359587       744.5383337338667
0.009993795147248338      744.8598127396283
0.010189124956984269      745.1937725339757
0.010384454766719743      745.5402131169091
0.010580087130370853      745.8991344884283
0.010776323202439026      746.2705366485335
0.01097346137071288       746.6544195972245
0.011170281912174305      747.0024939269111
0.011366204645540166      747.3598921949172
0.011561526547508357      747.7266144012423
0.011756547339625332      748.1026605458869
0.011951568131742307      748.4880306288508
0.0121468900337105        748.882724650134
0.012342812767076368      749.2867426097366
0.0125396333085378        749.7000845076585
0.012736771215691979      749.9714137738151
0.012933007030171178      750.241486069532
0.013128639138602195      750.5103013948087
0.013323968694306592      750.7778597496452
0.013519298250011432      751.0441611340419
0.013714930358443784      751.3092055479984
0.0139111661729252        751.572992991515
0.014108304080082462      751.8355234645913
0.014305241249097643      751.8196000683225
0.014501279037039759      751.8118277004827
0.014696714938233999      751.8122063610714
0.014891849199866372      751.8207360500888
0.015086983461498874      751.8374167675348
0.015282419362693495      751.8622485134096
0.01547845715063625       751.895231287713
0.015675394319652317      751.9363650904451
0.015872325504405583      751.5617185902034
0.01606835738884011       751.1981525112261
0.016263787440706973      750.8456668535131
0.016458915880206496      750.5042616170643
0.016654044319705866      750.1739368018798
0.016849474371572262      749.8546924079596
0.017045506256006017      749.5465284353038
0.017242437440758204      749.2494448839122
0.01743957168037589       748.7247659859603
0.017635803876907424      748.1919574464266
0.01783143240066149       747.651019265311
0.018026758388388308      747.1019514426134
0.01822208437611492       746.5447539783341
0.01841771289986836       745.9794268724729
0.018613945096398854      745.40597012503
0.018811079336015085      744.8243837360051
0.019007894687321662      744.2202121462012
0.01920381230049143       743.6166758250465
0.019399129129200405      743.013774772541
0.01959414487161704       742.4115089886842
0.01978916061403359       741.8098784734766
0.01998447744274231       741.2088832269181
0.020180395055911654      740.6085232490086
0.020377210407217645      740.0087985397482
0.020574360469106157      739.4856318699645
0.020770608273960874      738.9794830126839
0.020966252262493188      738.4903519679068
0.021161593642948652      738.0182387356327
0.021356935023404883      737.5631433158621
0.021552579011939476      737.1250657085947
0.021748826816797996      736.7040059138305
0.021945976878691802      736.2999639315697
0.022142917141692885      736.010645370228
0.022338957981867254      735.7601945757754
0.022534396907280062      735.5486115482116
0.02272953417907009       735.3758962875366
0.02292467145086023       735.2420487937505
0.02312011037627338       735.1470690668534
0.02331615121644832       735.090957106845
0.023513091479450195      735.0737129137257
0.023710025135207962      735.0074371039017
0.02390605945730262       734.9859459210285
0.024101491924457957      735.009239365106
0.024296622768016963      735.0773174361345
0.024491753611575823      735.1901801341137
0.02468718607873073       735.3478274590437
0.024883220400824673      735.5502594109246
0.025080154056581445      735.7974759897562
0.025277299572591536      736.1648094230138
0.025473542893039384      736.5492077274231
0.02566918243840792       736.9506709029843
0.025864519396400307      737.3691989496973
0.026059856354392216      737.8047918675621
0.026255495899759323      738.2574496565786
0.026451739220204794      738.7271723167471
0.026648884736211575      739.2139598480672
0.02684569473774919       739.7574098080519
0.027041607073256636      740.3049337550689
0.027236918672681274      740.856531689118
0.027431929210095855      741.4122036101992
0.027626939747510428      741.9719495183126
0.027822251346935042      742.5357694134581
0.028018163682442445      743.1036632956359
0.028214973683980002      743.6756311648458
0.028412120943583204      744.2317986255728
0.028608365984047285      744.7768784290702
0.02880400723361381       745.3108705753375
0.02899934588786498       745.8337750643751
0.02919468454211669       746.3455918961829
0.029390325791684838      746.8463210707608
0.02958657083215161       747.3359625881088
0.029783718091758563      747.8145164482271
0.029980652759780888      748.1263258237404
0.030176688080480362      748.4426857215865
0.030372121537075924      748.7635961417654
0.03056725336547531       749.0890570842769
0.030762385193874833      749.4190685491211
0.030957818650470807      749.753630536298
0.031153853971170976      750.0927430458077
0.031350788639194264      750.4364060776501
