% Model:              brazing.mph
% Version:            COMSOL 5.3.0.223
% Date:               Oct 24 2018, 04:08
% Dimension:          1
% Nodes:              225
% Expressions:        1
% Description:        Line graph
% x                       Height
0                         685.3872672416259
2.1191841480136804E-4     685.2841139469006
4.2353438892247565E-4     685.1390739642883
6.349689892252786E-4      684.9521472937887
8.463435942227858E-4      684.7233339354018
0.001057779685752053      684.452633889128
0.001269398639759412      684.1400471549666
0.001481321517995422      683.7855737329184
0.0017252358262731596     683.3148390489099
0.0019686866163640313     682.8099172685996
0.0022118589563155885     682.2708083919878
0.002454938550168189      681.6975124190743
0.0026981113144448556     681.0900293498595
0.0029415629522145732     680.4483591843427
0.0031854785295931678     679.7725019225245
0.0034450106912723537     678.9475864495945
0.0037039863009040125     678.0883833896212
0.003962627412610827      677.1948927426048
0.0042211569424298        676.2671145085454
0.004479798094906585      675.305048687443
0.004738773785972872      674.3086952792971
0.004998306069542035      673.2780542841084
0.005274868491808245      672.0787730725604
0.005550758931995686      670.86075056594
0.0058262454501036105     669.6239867642468
0.006101597285810183      668.3684816674811
0.006377084073678616      667.0942352756431
0.006652975052596927      665.8012475887322
0.006929538280995558      664.4895186067489
0.007206101510950518      663.1335489841476
0.007481992491406557      661.7953802966858
0.007757479280801014      660.4750125443628
0.00803283111802884       659.1724457271793
0.008308317637660222      657.8876798451349
0.008584208079380276      656.6207148982295
0.008860770503195153      655.3715508864634
0.009120302815147717      654.201249641136
0.00937927853441616       653.0745331031644
0.009637919714987194      651.9914012725487
0.009896449272866283      650.9518541492891
0.010155090412673047      649.9558917333858
0.010414066050518256      649.0035140248381
0.01067359824059789       648.0947210236465
0.010917512776055054      647.2678814343404
0.011160965100129169      646.4956932405452
0.011404139717480647      645.7781564422609
0.01164722176512739       645.1152710394874
0.011890396591516505      644.5070370322252
0.012133849333188814      643.9534544204735
0.012377764493855997      643.4545232042329
0.01258968694000722       643.066129280318
0.012801305803204788      642.7215587202214
0.013012742322906452      642.4208115239429
0.013224118052332232      642.1638876914826
0.01343555464954572       641.9507872228409
0.013647173667633327      641.7815101180167
0.013859096345786744      641.6560563770112
0.014071014760598048      641.591047052135
0.014282630734729056      641.5690809314385
0.01449406533504172       641.5901580149213
0.014705439940049088      641.6542783025835
0.014916876031588231      641.7614417944258
0.015128494985605482      641.911648490447
0.015340417863851432      642.104898390648
0.01558433217214941       642.3483238419151
0.015827782962260412      642.6542921722656
0.016070955302232025      643.0228033816999
0.016314034896104664      643.4538574702176
0.0165572076604014        643.9474544378194
0.01680065929819124       644.5035942845043
0.01704457487559009       645.122277010273
0.01730410703726679       645.8004810615993
0.017563082646895985      646.5220447756539
0.01782172375860034       647.2869681524363
0.018080253288416847      648.095251191947
0.01833889444089119       648.9468938941861
0.018597870131955005      649.8418962591531
0.018857402415521692      650.7802582868485
0.019133964837753384      651.7905727024255
0.019409855277906563      652.8209551720282
0.019685341795980367      653.8714056956571
0.019960693631652874      654.9419242733119
0.0202361804194872        656.0325109049929
0.020512071398371242      657.1431655906995
0.020788634626735362      658.2738883304323
0.02106519785666259       659.3791763584172
0.021341088837091095      660.4724134788306
0.021616575626458134      661.5535996916725
0.02189192746365859       662.622734996943
0.022167413983262562      663.6798193946422
0.02244330442495508       664.7248528847697
0.022719866848742224      665.7578354673259
0.022979399160698737      666.6306323787798
0.023238374879971102      667.4802979536628
0.023497016060546046      668.3068321919751
0.023755545618429033      669.1102350937167
0.02401418675823971       669.890506658888
0.024273162396088833      670.647646887488
0.024532694586172417      671.3816557795176
0.02477660912165014       671.9946781186262
0.02502006144574469       672.5733229539978
0.025263236063116538      673.1175902856322
0.025506318110783622      673.6274801135293
0.025749492937193107      674.1029924376896
0.02599294567888585       674.5441272581123
0.026236860839573585      674.9508845747981
0.026448783285734738      675.2488825041078
0.02666040214894219       675.5266965018557
0.026871838668653707      675.7843265680418
0.027083214398089334      676.0217727026662
0.027294650995312687      676.2390349057291
0.027506270013410168      676.4361131772298
0.02771819269157351       676.6130075171691
0.02793011110637494       676.7006192703838
0.028141727080496122      676.766272898219
0.028353161680798985      676.8099684006743
0.028564536285796558      676.8317057777501
0.028775972377325904      676.8314850294464
0.028987591331333325      676.8093061557628
0.029199514209569403      676.7651691566997
0.02944342851784522       676.5790169791691
0.02968687930793418       676.3485232950213
0.02993005164788383       676.0736881042565
0.030173131241734534      675.7545114068747
0.0304163040060093        675.3909932028761
0.0306597556437771        674.9831334922602
0.030903671221153783      674.5309322750275
0.031163203382828072      673.8877649942585
0.03142217899245488       673.1975365563214
0.03168082010415685       672.4602469612156
0.03193934963397098       671.6758962089415
0.032197990786442934      670.8444842994991
0.03245696647750436       669.9660112328878
0.032716498761068635      669.0404770091083
0.03299306118333142       667.8752463584265
0.03326895162351545       666.6882178167501
0.03354443814161999       665.4793913840787
0.03381978997732317       664.2487670604125
0.034095276765188226      662.9963448457518
0.03437116774410313       661.7221247400959
0.03464773097249833       660.4261067434454
0.034924294202460265      659.0567427774819
0.03520018518292322       657.7082369113699
0.03547567197232456       656.3805891451091
0.035751023809559274      655.0737994786995
0.036026510329197556      653.7878679121415
0.036302400770924524      652.5227944454343
0.03657896319474637       651.2785790785787
0.036838495506703706      650.1109695284406
0.03709747122597688       648.9984761835485
0.037356112406552636      647.9410990439023
0.03761464196443644       646.9388381095021
0.03787328310424792       645.991693380348
0.03813225874209787       645.0996648564395
0.03839179093218227       644.2627525377771
0.03863570546763781       643.5077859629993
0.038879157791710306      642.8204289802436
0.03912233240906017       642.2006815895103
0.03936541445670531       641.6485437907991
0.039608589283092806      641.1640155841105
0.039852042024763494      640.7470969694439
0.04009595718542905       640.3977879467996
0.040307879631580334      640.1318999079695
0.04051949849477797       639.9202141065256
0.0407309350144797        639.7627305424676
0.040942310743905544      639.6594492157955
0.04115374734111909       639.6103701265099
0.04136536635920676       639.6154932746099
0.04157728903736024       639.6748186600962
0.04178920745215007       639.7945789204329
0.042000823426259694      639.9668788610387
0.042212258026551035      640.1917184819134
0.04242363263153709       640.4690977830572
0.0426350687230549        640.7990167644703
0.042846687677050764      641.1814754261519
0.04305861055527523       641.6164737681029
0.04330252486354604       642.1469422624757
0.043545975653630026      642.7481822332246
0.04378914799357473       643.4201936803491
0.044032227587420474      644.1629766038496
0.04427540035169028       644.9765310037262
0.04451885198945311       645.8608568799783
0.044762767566824783      646.8159542326065
0.045022299728516735      647.8649966828009
0.04528127533816108       648.962757500395
0.045539916449880535      650.1092366853891
0.045798445979712124      651.3044342377831
0.046057087132201545      652.5483501575774
0.04631606282328052       653.840984444771
0.046575595106862454      655.1823370993649
0.04685215752913061       656.6117027025421
0.04712804796931999       658.0644782081025
0.04740353448742985       659.5406636160466
0.04767888632313835       661.0402589263741
0.04795437311100872       662.5632641390853
0.048230264089928976      664.1096792541797
0.048506827318329566      665.6795042716577
0.04878339054829114       667.1671729508462
0.049059281528753745      668.632350503604
0.04933476831815475       670.0750369299318
0.0496101201553891        671.4952322298292
0.04988560667502701       672.8929364032967
0.05016149711675364       674.2681494503336
0.050438059540575134      675.6208713709403
0.05069759185254397       676.715352647207
0.05095656757182859       677.7600334114802
0.05121520875241573       678.75491366376
0.05147373831031092       679.6999934040462
0.051732379450133786      680.5952726323392
0.05199135508799517       681.4407513486382
0.05225088727809108       682.236429552944
0.0524948018135407        682.8606684697919
0.052738254137607306      683.4227162819832
0.05298142875495131       683.9225729895176
0.05322451080259058       684.3602385923953
0.0534676856289722        684.7357130906166
0.05371113837063701       685.0489964841807
0.05395505353129665       685.3000887730884
0.05416697597743634       685.447912467147
0.054378594840622414      685.5506129521641
0.05459003136031263       685.6081902281395
0.05480140708972696       685.6206442950734
0.05501284368692898       685.5879751529659
0.0552244627050051        685.5101828018167
0.05543638538314697       685.3872672416259
