% Model:              brazing.mph
% Version:            COMSOL 5.3.0.223
% Date:               Oct 24 2018, 06:36
% Dimension:          1
% Nodes:              225
% Expressions:        1
% Description:        Line graph
% x                       Height
0                         914.7385282164418
2.02242572596226E-4       914.7298481071647
4.040113375593453E-4      914.6094446104574
6.054635867748898E-4      914.3773177263198
8.067573541103817E-4      914.0334674547522
0.0010080510467017985     913.5778937957544
0.001209503071861434      913.0105967493263
0.0014112714639836859     912.3315763154679
0.001613513515825394      911.5408324941794
0.001815803045808458      910.9359495687903
0.0020176184164428694     910.251179402807
0.0022191170764546647     909.4865219962293
0.0024204572175778446     908.6419773490571
0.00262179740518867       907.7175454612908
0.002823296204553664      906.7132263329296
0.0030251118070788686     905.6290199639747
0.003227401660948015      904.4649263544248
0.0034297372965816655     903.3749668206318
0.003631598594156443      902.2142816084491
0.0038331430353414214     900.9828707178766
0.004034528845142556      899.6807341489144
0.004235914622467191      898.3078719015626
0.004437458966299354      896.864283975821
0.004639320101874085      895.3499703716894
0.004841655511239337      893.7649310891683
0.005043918276497792      892.4435845438153
0.005245706959792293      891.0883146225141
0.0054471789681153834     889.6991213252649
0.00564849245128538       888.2760046520676
0.005849805932728159      886.8189646029222
0.006051277935873691      885.3280011778287
0.00625306661055245       883.8031143767872
0.006455329363777148      882.2443041997975
0.0066576887471433525     880.7597264554103
0.0068595736811967985     879.2992993748945
0.007061141707903535      877.8630229582506
0.007262551112883539      876.4508972054781
0.007463960555734714      875.0629221165774
0.007665528695965537      873.699097691548
0.00786741381892875       872.3594239303906
0.0080697734661485        871.0439008331044
0.008272395437950266      869.8964666763069
0.008474540847339949      868.770084286545
0.008676367906616744      867.6647536638194
0.008878035577337231      866.5804748081295
0.009079703197965442      865.5172477194754
0.009281530107084053      864.4750723978574
0.00948367526660416       863.4539488432753
0.009686296889411194      862.4538770557291
0.009888748367913874      861.8784682931081
0.010090724718905934      861.3496256607185
0.010292383720552634      860.8673491585604
0.010493883896490891      860.4316387866337
0.010695384145210549      860.0424945449387
0.010897043365029401      859.6999164334746
0.011099020079070253      859.4039044522427
0.011301472064648224      859.1544586012418
0.011503924099142101      859.1101192728419
0.011705900863193036      859.115972523725
0.011907560133099505      859.1720183538911
0.012109060430962503      859.2782567633404
0.012310560654077738      859.4346877520728
0.012512219699917606      859.6413113200882
0.012714196091111104      859.8981274673869
0.012916647604829811      860.2051361939688
0.013119269382981878      860.8103385099474
0.013321414683399362      861.4571372240349
0.013523241722808088      862.145532336231
0.013724909467002238      862.8755238465361
0.013926577258472442      863.6471117549501
0.014128404439597363      864.4602960614726
0.014330549975836581      865.315076766104
0.01453317208336263       866.2114538688442
0.014735531766219815      867.2580794514071
0.014937416940401616      868.3122684235376
0.015138985143475461      869.3740207852358
0.015340394656791169      870.4433365365015
0.015541804135826716      871.5202156773349
0.015743372236141022      872.6046582077362
0.015945257239325793      873.6966641277048
0.01614761668334845       874.7962334372411
0.01634987940592303       876.190304632942
0.016551668047823844      877.5543122359883
0.016753140015983766      878.8882562463804
0.0169544534601584        880.192136664118
0.017155766903708087      881.4659534892013
0.017357238869994664      882.7097067216301
0.017559027508778132      883.9233963614043
0.01776129022699866       885.1070224085244
0.017963625484858744      886.3665863308089
0.018165486461237414      887.5877446967473
0.018367030641941378      888.7704975063403
0.018568416255992027      889.9148447595873
0.018769801906169285      891.0207864564885
0.018971346195167795      892.0883225970437
0.019173207351754082      893.1174531812534
0.019375542861313405      894.108178209117
0.019577832661189145      895.2062305980229
0.019779648217873542      896.2062982697959
0.019981146975907166      897.1083812244359
0.020182487123025287      897.912479461943
0.020383827220813066      898.6185929823172
0.020585325830972126      899.2267217855587
0.020787141141585735      899.736865871667
0.020989430597769934      900.1490252406423
0.021191672662378012      900.9340234730809
0.021393441061935803      901.6091973100328
0.02159489309031221       902.1745467514978
0.021796186783028852      902.630071797476
0.021997480548535182      902.9757724479674
0.022198932795108938      903.2116487029722
0.022400701557758636      903.3377005624899
0.02260294412950465       903.353928026521
0.02280539620920995       903.5166447247617
0.023007373018156245      903.56601633801
0.02320903233274668       903.5020428662659
0.023410532675187733      903.3247243095296
0.023612032942881025      903.0340606678009
0.023813692033404853      902.6300519410801
0.024015668469493705      902.1126981293665
0.024218120028423832      901.481999232661
0.024420742013481003      901.002137510509
0.02462288751935683       900.4334622599091
0.02482471476325633       899.7759734808614
0.02502638271145666       899.0296711733655
0.025228050706933344      898.1945553374218
0.025429878092549915      897.2706259730302
0.025632023834248962      896.2578830801905
0.025834646148682177      895.1563266589029
0.026037006051731277      894.0957220540892
0.026238891444565628      892.9638264342688
0.02644045986526205       891.7606397994422
0.026641869595683754      890.4861621496092
0.02684327929182417       889.1403934847696
0.027044847609757647      887.7233338049238
0.02724673283158932       886.2349831100715
0.027449092495796006      884.6753414002129
0.02765135518998453       883.2736640245022
0.027853143803698084      881.8479435549717
0.028054615743803996      880.398179991622
0.028255929159991804      878.9243733344525
0.028457242575555555      877.4265235834636
0.028658714513790734      875.9046307386549
0.028860503124391312      874.3586948000269
0.029062765814231884      872.7887157675792
0.029265100752448706      871.2413753398756
0.02946696141141544       869.731449734367
0.029668505276199596      868.258938951053
0.029869890575077548      866.823842989934
0.03007127591008127       865.4261618510099
0.030272819883157453      864.0658955342802
0.03047468072232762       862.7430440397455
0.030677015912237836      861.4576073674058
0.030879305594778746      860.3220222359245
0.03108112103494649       859.2342759021464
0.031282619677010744      858.1943683660719
0.03148395970843373       857.2022996277009
0.0316852996905265        856.2580696870333
0.031886798184716555      855.3616785440692
0.032088613378814135      854.5131261988087
0.03229090271766436       853.7124126512514
0.03249314477533616       853.2622520481431
0.03269491316800606       852.8858861612629
0.03289636518952694       852.5833149906108
0.03309765887540427       852.3545385361869
0.033298952634071295      852.199556797991
0.033500404873789524      852.1183697760235
0.03370217362955133       852.110977470284
0.03390441619436107       852.1773798807725
0.03410686840969767       852.438105393168
0.03430884535332711       852.7741979406698
0.0345105048019665        853.1856575232774
0.034712005278138794      853.6724841409913
0.03491350567956333       854.2346777938113
0.03511516490413611       854.8722384817371
0.035317141474908095      855.5851662047693
0.03551959316946952       856.3734609629074
0.035722216260139425      857.4182091939755
0.03592436286389621       858.5195129668554
0.036126191200505704      859.6773722815464
0.03632786023882611       860.8917871380492
0.03652952932442421       862.1627575363633
0.036731357802754806      863.490283476489
0.03693350464234149       864.8743649584263
0.03713612806239678       866.315001982175
0.03733848789969145       867.8833436153842
0.037540373227224554      869.4729077242581
0.03774194158292153       871.0836943087967
0.03794335124849304       872.7157033689997
0.03814476087977932       874.3689349048672
0.03834632913270157       876.0433889163995
0.03854821428921239       877.7390654035961
0.038750573887637245      879.4559643664576
0.03895283596123875       881.3436377872346
0.039154623958694366      883.2000585078773
0.039356095285438375      885.0252265283858
0.03955740808971597       886.8191418487603
0.03975872089337115       888.5818044690005
0.03996019221824938       890.3132143891065
0.04016198021260023       892.0133716090785
0.04036424228186526       893.6822761289162
0.040566577948397485      895.3414171561736
0.040768439330593605      896.942071954276
0.04096998391520435       898.4842405232231
0.04117136993220262       899.9679228630154
0.04137275598532357       901.3931189736523
0.04157430067821714       902.7598288551345
0.04177616224060133       904.0680525074614
0.0419784981588055        905.3177899306332
0.04218078754816035       906.6072272412531
0.04238260269718259       907.7781698541627
0.04258410104946696       908.830617769362
0.04278544079179545       909.764570986851
0.04298678048479618       910.5800295066298
0.043188278689213704      911.2769933286985
0.043390093592177985      911.8554624530567
0.04359238263785921       912.3154368797049
0.043794623705544454      913.0421613938435
0.04399639111513442       913.647789308826
0.04419784215819482       914.1323206246524
0.04439913486792596       914.4957553413225
0.044600427650446826      914.7380934588365
0.04480187891170468       914.8593349771942
0.045003646684386715      914.859479896396
0.04520588825921017       914.7385282164418
