% Model:              brazing.mph
% Version:            COMSOL 5.3.0.223
% Date:               Oct 24 2018, 04:11
% Dimension:          1
% Nodes:              225
% Expressions:        1
% Description:        Line graph
% x                       Height
0                         759.331449864157
2.02242572596226E-4       759.2890759570117
4.040113375593453E-4      759.1724994801478
6.054635867748898E-4      758.9817204335649
8.067573541103817E-4      758.7167388172635
0.0010080510467017985     758.3775546312432
0.001209503071861434      757.9641678755044
0.0014112714639836859     757.4765785500466
0.001613513515825394      756.91478665487
0.001815803045808458      756.3921279315363
0.0020176184164428694     755.8148628765442
0.0022191170764546647     755.1829914898941
0.0024204572175778446     754.4965137715859
0.00262179740518867       753.7554297216194
0.002823296204553664      752.959739339995
0.0030251118070788686     752.1094426267122
0.003227401660948015      751.2045395817714
0.0034297372965816655     750.3282581306548
0.003631598594156443      749.408260094424
0.0038331430353414214     748.4445454730787
0.004034528845142556      747.4371142666191
0.004235914622467191      746.3859664750452
0.004437458966299354      745.2911020983571
0.004639320101874085      744.1525211365546
0.004841655511239337      742.9702235896375
0.005043918276497792      741.8793721917057
0.005245706959792293      740.7742219143552
0.0054471789681153834     739.6547727575859
0.00564849245128538       738.521024721398
0.005849805932728159      737.3729778057914
0.006051277935873691      736.2106320107662
0.00625306661055245       735.0339873363218
0.006455329363777148      733.8430437824593
0.0066576887471433525     732.69290056185
0.0068595736811967985     731.5647697227828
0.007061141707903535      730.4586512652575
0.007262551112883539      729.374545189274
0.007463960555734714      728.3124514948328
0.007665528695965537      727.2723701819332
0.00786741381892875       726.2543012505758
0.0080697734661485        725.2582447007602
0.008272395437950266      724.3570023869828
0.008474540847339949      723.4848899452217
0.008676367906616744      722.6419073754771
0.008878035577337231      721.8280546777489
0.009079703197965442      721.0433318520371
0.009281530107084053      720.2877388983417
0.00948367526660416       719.5612758166627
0.009686296889411194      718.8639426070004
0.009888748367913874      718.3983777065949
0.010090724718905934      717.9799120304543
0.010292383720552634      717.6085455785784
0.010493883896490891      717.2842783509673
0.010695384145210549      717.0071103476209
0.010897043365029401      716.7770415685392
0.011099020079070253      716.5940720137223
0.011301472064648224      716.4582016831702
0.011503924099142101      716.4467960102455
0.011705900863193036      716.4838638090793
0.011907560133099505      716.5694050796715
0.012109060430962503      716.7034198220222
0.012310560654077738      716.8859080361312
0.012512219699917606      717.116869721999
0.012714196091111104      717.396304879625
0.012916647604829811      717.7242135090095
0.013119269382981878      718.2230429842747
0.013321414683399362      718.7607908684739
0.013523241722808088      719.3374571616068
0.013724909467002238      719.9530418636739
0.013926577258472442      720.6075449746746
0.014128404439597363      721.3009664946094
0.014330549975836581      722.0333064234782
0.01453317208336263       722.8045647612806
0.014735531766219815      723.6614042458268
0.014937416940401616      724.5342391722687
0.015138985143475461      725.4230695406064
0.015340394656791169      726.3278953508396
0.015541804135826716      727.2487166029686
0.015743372236141022      728.1855332969933
0.015945257239325793      729.1383454329138
0.01614761668334845       730.1071530107298
0.01634987940592303       731.2058568698927
0.016551668047823844      732.2900006726798
0.016753140015983766      733.3595844190909
0.0169544534601584        734.4146081091262
0.017155766903708087      735.4550717427858
0.017357238869994664      736.4809753200693
0.017559027508778132      737.4923188409771
0.01776129022699866       738.4891023055089
0.017963625484858744      739.5253650130933
0.018165486461237414      740.5323843485465
0.018367030641941378      741.5101603118688
0.018568416255992027      742.4586929030601
0.018769801906169285      743.3779821221204
0.018971346195167795      744.2680279690495
0.019173207351754082      745.1288304438477
0.019375542861313405      745.960389546515
0.019577832661189145      746.8236084459205
0.019779648217873542      747.626319683014
0.019981146975907166      748.3685232577957
0.020182487123025287      749.0502191702651
0.020383827220813066      749.6714074204225
0.020585325830972126      750.2320880082681
0.020787141141585735      750.7322609338013
0.020989430597769934      751.1719261970228
0.021191672662378012      751.7249225627735
0.021393441061935803      752.2044218610109
0.02159489309031221       752.6104240917356
0.021796186783028852      752.9429292549472
0.021997480548535182      753.2019373506458
0.022198932795108938      753.3874483788314
0.022400701557758636      753.499462339504
0.02260294412950465       753.5379792326636
0.02280539620920995       753.6361231385819
0.023007373018156245      753.6577673548512
0.02320903233274668       753.6029118814716
0.023410532675187733      753.4715567184429
0.023612032942881025      753.2637018657653
0.023813692033404853      752.9793473234384
0.024015668469493705      752.6184930914627
0.024218120028423832      752.181139169838
0.024420742013481003      751.750744970704
0.02462288751935683       751.2564580477123
0.02482471476325633       750.6982784008633
0.02502638271145666       750.0762060301569
0.025228050706933344      749.390240935593
0.025429878092549915      748.6403831171717
0.025632023834248962      747.826632574893
0.025834646148682177      746.9489893087571
0.026037006051731277      746.0698052642691
0.026238891444565628      745.1427754023686
0.02644045986526205       744.1678997230555
0.026641869595683754      743.1451782263298
0.02684327929182417       742.0746109121915
0.027044847609757647      740.9561977806408
0.02724673283158932       739.7899388316773
0.027449092495796006      738.5758340653014
0.02765135518998453       737.3881037092341
0.027853143803698084      736.1892172796898
0.028054615743803996      734.9791747766684
0.028255929159991804      733.75797620017
0.028457242575555555      732.5256215501944
0.028658714513790734      731.2821108267417
0.028860503124391312      730.027444029812
0.029062765814231884      728.7616211594053
0.029265100752448706      727.5080744662473
0.02946696141141544       726.2841997129748
0.029668505276199596      725.0899968995877
0.029869890575077548      723.925466026086
0.03007127591008127       722.7906070924697
0.030272819883157453      721.6854200987391
0.03047468072232762       720.6099050448937
0.030677015912237836      719.5640619309339
0.030879305594778746      718.6062139456574
0.03108112103494649       717.6936576831474
0.031282619677010744      716.8263931434041
0.03148395970843373       716.0044203264273
0.0316852996905265        715.2277392322172
0.031886798184716555      714.4963498607734
0.032088613378814135      713.8102522120965
0.03229090271766436       713.1694462861859
0.03249314477533616       712.7326272555187
0.03269491316800606       712.3609428308245
0.03289636518952694       712.0543930121034
0.03309765887540427       711.8129777993556
0.033298952634071295      711.6366971925809
0.033500404873789524      711.5255511917794
0.03370217362955133       711.479539796951
0.03390441619436107       711.4986630080956
0.03410686840969767       711.6417921236599
0.03430884535332711       711.8504453531349
0.0345105048019665        712.1246226965205
0.034712005278138794      712.4643241538167
0.03491350567956333       712.8695497250236
0.03511516490413611       713.3402994101411
0.035317141474908095      713.8765732091691
0.03551959316946952       714.478371122108
0.035722216260139425      715.2397062600921
0.03592436286389621       716.0509735787965
0.036126191200505704      716.9121730782211
0.03632786023882611       717.823304758366
0.03652952932442421       718.7843686192311
0.036731357802754806      719.7953646608165
0.03693350464234149       720.856292883122
0.03713612806239678       721.967153286148
0.03733848789969145       723.1513602412257
0.037540373227224554      724.3593102361205
0.03774194158292153       725.5910032708321
0.03794335124849304       726.8464393453606
0.03814476087977932       728.1256184597061
0.03834632913270157       729.4285406138684
0.03854821428921239       730.755205807848
0.038750573887637245      732.1056140416442
0.03895283596123875       733.5261885604011
0.039154623958694366      734.9297612247757
0.039356095285438375      736.3163320347677
0.03955740808971597       737.6859009903775
0.03975872089337115       739.0384680916048
0.03996019221824938       740.3740333384499
0.04016198021260023       741.6925967309124
0.04036424228186526       742.9941582689927
0.040566577948397485      744.2830375426898
0.040768439330593605      745.5283416957394
0.04096998391520435       746.7300707281416
0.04117136993220262       747.8882246398961
0.04137275598532357       749.0028034310029
0.04157430067821714       750.0738071014622
0.04177616224060133       751.1012356512741
0.0419784981588055        752.0850890804383
0.04218078754816035       753.0523110042822
0.04238260269718259       753.9442131421266
0.04258410104946696       754.7607954939721
0.04278544079179545       755.5020580598181
0.04298678048479618       756.1680008396648
0.043188278689213704      756.7586238335122
0.043390093592177985      757.2739270413605
0.04359238263785921       757.7139104632091
0.043794623705544454      758.1988074606035
0.04399639111513442       758.6029317230617
0.04419784215819482       758.9262832505841
0.04439913486792596       759.1688620431706
0.044600427650446826      759.3306681008211
0.04480187891170468       759.4117014235356
0.045003646684386715      759.4119620113144
0.04520588825921017       759.331449864157
