% Model:              brazing.mph
% Version:            COMSOL 5.3.0.223
% Date:               Oct 24 2018, 06:06
% Dimension:          1
% Nodes:              225
% Expressions:        1
% Description:        Line graph
% x                       Height
0                         686.7108389905321
2.02242572596226E-4       686.6990578586367
4.040113375593453E-4      686.6231446112715
6.054635867748898E-4      686.4830992484366
8.067573541103817E-4      686.2789217701319
0.0010080510467017985     686.0106121763573
0.001209503071861434      685.6781704671132
0.0014112714639836859     685.281596642399
0.001613513515825394      684.8208907022154
0.001815803045808458      684.4093142761828
0.0020176184164428694     683.9505121719222
0.0022191170764546647     683.4444843894338
0.0024204572175778446     682.8912309287173
0.00262179740518867       682.2907517897727
0.002823296204553664      681.6430469726004
0.0030251118070788686     680.9481164771998
0.003227401660948015      680.2059603035714
0.0034297372965816655     679.4859999628177
0.003631598594156443      678.728466932423
0.0038331430353414214     677.9333612123875
0.004034528845142556      677.1006828027109
0.004235914622467191      676.2304317033934
0.004437458966299354      675.3226079144351
0.004639320101874085      674.3772114358358
0.004841655511239337      673.3942422675955
0.005043918276497792      672.4980604709835
0.005245706959792293      671.5893871310864
0.0054471789681153834     670.6682222479039
0.00564849245128538       669.7345658214363
0.005849805932728159      668.7884178516833
0.006051277935873691      667.8297783386453
0.00625306661055245       666.8586472823217
0.006455329363777148      665.875024682713
0.0066576887471433525     664.9220235634189
0.0068595736811967985     663.9875581061917
0.007061141707903535      663.0716283110319
0.007262551112883539      662.1742341779391
0.007463960555734714      661.2953757069134
0.007665528695965537      660.435052897955
0.00786741381892875       659.5932657510634
0.0080697734661485        658.7700142662392
0.008272395437950266      658.029490263161
0.008474540847339949      657.3117897762136
0.008676367906616744      656.6169128053967
0.008878035577337231      655.9448593507105
0.009079703197965442      655.295629412155
0.009281530107084053      654.66922298973
0.00948367526660416       654.0656400834357
0.009686296889411194      653.484880693272
0.009888748367913874      653.1135612996452
0.010090724718905934      652.7805634194269
0.010292383720552634      652.4858870526175
0.010493883896490891      652.2295321992166
0.010695384145210549      652.0114988592244
0.010897043365029401      651.8317870326407
0.011099020079070253      651.690396719466
0.011301472064648224      651.5873279196996
0.011503924099142101      651.5893546568269
0.011705900863193036      651.6309228124799
0.011907560133099505      651.7120323866584
0.012109060430962503      651.8326833793626
0.012310560654077738      651.9928757905925
0.012512219699917606      652.192609620348
0.012714196091111104      652.4318848686293
0.012916647604829811      652.7107015354361
0.013119269382981878      653.1429244636795
0.013321414683399362      653.6066847602509
0.013523241722808088      654.1019824251503
0.013724909467002238      654.6288174583775
0.013926577258472442      655.1871898599328
0.014128404439597363      655.7770996298161
0.014330549975836581      656.3985467680274
0.01453317208336263       657.0515312745666
0.014735531766219815      657.7756295016195
0.014937416940401616      658.5122263203087
0.015138985143475461      659.2613217306346
0.015340394656791169      660.0229157325967
0.015541804135826716      660.7970083261954
0.015743372236141022      661.5835995114306
0.015945257239325793      662.382689288302
0.01614761668334845       663.19427765681
0.01634987940592303       664.124836844435
0.016551668047823844      665.04230438876
0.016753140015983766      665.9466802897851
0.0169544534601584        666.8379645475104
0.017155766903708087      667.7161571619357
0.017357238869994664      668.5812581330612
0.017559027508778132      669.4332674608867
0.01776129022699866       670.2721851454122
0.017963625484858744      671.1395072706447
0.018165486461237414      671.9819813417557
0.018367030641941378      672.7996073587454
0.018568416255992027      673.5923853216136
0.018769801906169285      674.3603152303604
0.018971346195167795      675.1033970849858
0.019173207351754082      675.8216308854896
0.019375542861313405      676.5150166318722
0.019577832661189145      677.2308672130765
0.019779648217873542      677.8938799216322
0.019981146975907166      678.5040547575394
0.020182487123025287      679.0613917207979
0.020383827220813066      679.5658908114079
0.020585325830972126      680.0175520293693
0.020787141141585735      680.4163753746822
0.020989430597769934      680.7623608473463
0.021191672662378012      681.2174893874866
0.021393441061935803      681.6084130674262
0.02159489309031221       681.9351318871651
0.021796186783028852      682.1976458467032
0.021997480548535182      682.3959549460403
0.022198932795108938      682.5300591851769
0.022400701557758636      682.5999585641125
0.02260294412950465       682.6056530828475
0.02280539620920995       682.6595793108337
0.023007373018156245      682.6469611454113
0.02320903233274668       682.5677985865804
0.023410532675187733      682.4220916343407
0.023612032942881025      682.2098402886927
0.023813692033404853      681.9310445496359
0.024015668469493705      681.5857044171707
0.024218120028423832      681.1738198912972
0.024420742013481003      680.7856987773619
0.02462288751935683       680.3432357069116
0.02482471476325633       679.8464306799466
0.02502638271145666       679.2952836964665
0.025228050706933344      678.6897947564715
0.025429878092549915      678.0299638599616
0.025632023834248962      677.3157910069368
0.025834646148682177      676.5472761973971
0.026037006051731277      675.7766507222613
0.026238891444565628      674.9651817694227
0.02644045986526205       674.1128693388815
0.026641869595683754      673.2197134306375
0.02684327929182417       672.2857140446908
0.027044847609757647      671.3108711810415
0.02724673283158932       670.2951848396895
0.027449092495796006      669.2386550206347
0.02765135518998453       668.2136297885896
0.027853143803698084      667.1795769296218
0.028054615743803996      666.1364964437312
0.028255929159991804      665.0843883309176
0.028457242575555555      664.0232525911812
0.028658714513790734      662.9530892245223
0.028860503124391312      661.8738982309402
0.029062765814231884      660.7856796104354
0.029265100752448706      659.7038080907851
0.02946696141141544       658.6475734091053
0.029668505276199596      657.616975565396
0.029869890575077548      656.6120145596574
0.03007127591008127       655.6326903918892
0.030272819883157453      654.6790030620916
0.03047468072232762       653.7509525702648
0.030677015912237836      652.8485389164083
0.030879305594778746      652.0245217741282
0.03108112103494649       651.2375525969886
0.031282619677010744      650.4876313849896
0.03148395970843373       649.7747581381311
0.0316852996905265        649.0989328564132
0.031886798184716555      648.4601555398357
0.032088613378814135      647.858426188399
0.03229090271766436       647.2937448021025
0.03249314477533616       646.9194547084569
0.03269491316800606       646.5995372561482
0.03289636518952694       646.3339924451764
0.03309765887540427       646.1228202755415
0.033298952634071295      645.9660207472435
0.033500404873789524      645.8635938602824
0.03370217362955133       645.8155396146583
0.03390441619436107       645.8218580103712
0.03410686840969767       645.9350423635395
0.03430884535332711       646.1029494795266
0.0345105048019665        646.3255793583324
0.034712005278138794      646.602931999957
0.03491350567956333       646.9350074044004
0.03511516490413611       647.3218055716626
0.035317141474908095      647.7633265017436
0.03551959316946952       648.2595701946433
0.035722216260139425      648.9027565010034
0.03592436286389621       649.5877372284268
0.036126191200505704      650.3145123769135
0.03632786023882611       651.0830819464634
0.03652952932442421       651.8934459370764
0.036731357802754806      652.745604348753
0.03693350464234149       653.6395571814926
0.03713612806239678       654.5753044352955
0.03733848789969145       655.574764218325
0.037540373227224554      656.5943214286822
0.03774194158292153       657.6339760663674
0.03794335124849304       658.6937281313805
0.03814476087977932       659.7735776237214
0.03834632913270157       660.8735245433904
0.03854821428921239       661.9935688903871
0.038750573887637245      663.1337106647118
0.03895283596123875       664.3436854997917
0.039154623958694366      665.5396792831028
0.039356095285438375      666.7216920146451
0.03955740808971597       667.8897236944185
0.03975872089337115       669.0437743224231
0.03996019221824938       670.1838438986588
0.04016198021260023       671.3099324231257
0.04036424228186526       672.4220398958239
0.040566577948397485      673.520764074251
0.040768439330593605      674.5839577632094
0.04096998391520435       675.611620962699
0.04117136993220262       676.6037536727197
0.04137275598532357       677.5603558932715
0.04157430067821714       678.4814276243548
0.04177616224060133       679.3669688659689
0.0419784981588055        680.2169796181146
0.04218078754816035       681.0524588455909
0.04238260269718259       681.8239167537043
0.04258410104946696       682.531353342455
0.04278544079179545       683.174768611843
0.04298678048479618       683.754162561868
0.043188278689213704      684.2695351925305
0.043390093592177985      684.7208865038301
0.04359238263785921       685.1082164957669
0.043794623705544454      685.5531273743679
0.04399639111513442       685.9281573767532
0.04419784215819482       686.2333065029226
0.04439913486792596       686.4685747528762
0.044600427650446826      686.6339621266139
0.04480187891170468       686.729468624136
0.045003646684386715      686.7550942454419
0.04520588825921017       686.7108389905321
