% Model:              brazing.mph
% Version:            COMSOL 5.3.0.223
% Date:               Oct 24 2018, 05:01
% Dimension:          1
% Nodes:              225
% Expressions:        1
% Description:        Line graph
% x                       Height
0                         739.5433803238161
2.1191841480136804E-4     739.4181356480924
4.2353438892247565E-4     739.2468925785226
6.349689892252786E-4      739.0296511151066
8.463435942227858E-4      738.7664112578447
0.001057779685752053      738.4571730067368
0.001269398639759412      738.1019363617824
0.001481321517995422      737.7007013229821
0.0017252358262731596     737.1717692189319
0.0019686866163640313     736.6039710217151
0.0022118589563155885     735.9973067313316
0.002454938550168189      735.3517763477818
0.0026981113144448556     734.6673798710656
0.0029415629522145732     733.9441173011826
0.0031854785295931678     733.1819886381332
0.0034450106912723537     732.2620132891643
0.0037039863009040125     731.3041367107651
0.003962627412610827      730.3083589029352
0.0042211569424298        729.2746798656748
0.004479798094906585      728.2030995989843
0.004738773785972872      727.0936181028627
0.004998306069542035      725.9462353773109
0.005274868491808245      724.6184308136844
0.005550758931995686      723.2699846671718
0.0058262454501036105     721.9008969377728
0.006101597285810183      720.5111676254877
0.006377084073678616      719.1007967303168
0.006652975052596927      717.6697842522595
0.006929538280995558      716.2181301913163
0.007206101510950518      714.7201230148095
0.007481992491406557      713.2406876876845
0.007757479280801014      711.779824209941
0.00803283111802884       710.3375325815795
0.008308317637660222      708.9138128026001
0.008584208079380276      707.508664873002
0.008860770503195153      706.122088792786
0.009120302815147717      704.8253889536713
0.00937927853441616       703.5756621518456
0.009637919714987194      702.3729083873086
0.009896449272866283      701.2171276600607
0.010155090412673047      700.1083199701018
0.010414066050518256      699.0464853174316
0.01067359824059789       698.0316237020504
0.010917512776055054      697.1098095746605
0.011160965100129169      696.2474074861664
0.011404139717480647      695.4444174365675
0.01164722176512739       694.7008394258643
0.011890396591516505      694.016673454057
0.012133849333188814      693.3919195211449
0.012377764493855997      692.8265776271287
0.01258968694000722       692.3845958964895
0.012801305803204788      691.9907112995497
0.013012742322906452      691.6449238363098
0.013224118052332232      691.3472335067693
0.01343555464954572       691.0976403109288
0.013647173667633327      690.8961442487878
0.013859096345786744      690.7427453203466
0.014071014760598048      690.6537809468435
0.014282630734729056      690.6122608897307
0.01449406533504172       690.6181851490077
0.014705439940049088      690.6715537246747
0.014916876031588231      690.7723666167324
0.015128494985605482      690.9206238251795
0.015340417863851432      691.1163253500171
0.01558433217214941       691.3684988982046
0.015827782962260412      691.6880686368534
0.016070955302232025      692.0750345659629
0.016314034896104664      692.5293966855339
0.0165572076604014        693.0511549955663
0.01680065929819124       693.6403094960596
0.01704457487559009       694.2968601870141
0.01730410703726679       695.0209176744376
0.017563082646895985      695.7927037822074
0.01782172375860034       696.6122185103233
0.018080253288416847      697.4794618587857
0.01833889444089119       698.3944338275946
0.018597870131955005      699.3571344167497
0.018857402415521692      700.3675636262511
0.019133964837753384      701.4572192868817
0.019409855277906563      702.569359360201
0.019685341795980367      703.7039838462088
0.019960693631652874      704.8610927449054
0.0202361804194872        706.040686056291
0.020512071398371242      707.2427637803648
0.020788634626735362      708.4673259171276
0.02106519785666259       709.6618746113273
0.021341088837091095      710.8442474455125
0.021616575626458134      712.0144444196828
0.02189192746365859       713.1724655338384
0.022167413983262562      714.3183107879796
0.02244330442495508       715.4519801821056
0.022719866848742224      716.573473716217
0.022979399160698737      717.527182788529
0.023238374879971102      718.4562901690783
0.023497016060546046      719.3607958578652
0.023755545618429033      720.2406998548902
0.02401418675823971       721.0960021601528
0.024273162396088833      721.9267027736528
0.024532694586172417      722.7328016953905
0.02477660912165014       723.4096408334133
0.02502006144574469       724.050127708528
0.025263236063116538      724.6542623207342
0.025506318110783622      725.2220446700325
0.025749492937193107      725.7534747564227
0.02599294567888585       726.2485525799045
0.026236860839573585      726.7072781404784
0.026448783285734738      727.0477916688913
0.02666040214894219       727.3650251714635
0.026871838668653707      727.6589786481951
0.027083214398089334      727.9296520990863
0.027294650995312687      728.1770455241373
0.027506270013410168      728.4011589233473
0.02771819269157351       728.6019922967172
0.02793011110637494       728.7128534274802
0.028141727080496122      728.7979923816303
0.028353161680798985      728.8574091591678
0.028564536285796558      728.8911037600923
0.028775972377325904      728.8990761844043
0.028987591331333325      728.8813264321033
0.029199514209569403      728.8378545031895
0.02944342851784522       728.645775561971
0.02968687930793418       728.4052083206784
0.02993005164788383       728.116152779311
0.030173131241734534      727.7786089378694
0.0304163040060093        727.3925767963536
0.0306597556437771        726.958056354763
0.030903671221153783      726.4750476130981
0.031163203382828072      725.7925479136779
0.03142217899245488       725.0591774922491
0.03168082010415685       724.2749363488115
0.03193934963397098       723.439824483365
0.032197990786442934      722.5538418959102
0.03245696647750436       721.6169885864462
0.032716498761068635      720.6292645549736
0.03299306118333142       719.3883992538002
0.03326895162351545       718.12417781882
0.03354443814161999       716.8366002500333
0.03381978997732317       715.52566654744
0.034095276765188226      714.1913767110403
0.03437116774410313       712.8337307408336
0.03464773097249833       711.4527286368207
0.034924294202460265      709.98975496859
0.03520018518292322       708.5490589769224
0.03547567197232456       707.130640661818
0.035751023809559274      705.7345000232771
0.036026510329197556      704.3606370612997
0.036302400770924524      703.009051775885
0.03657896319474637       701.6797441670338
0.036838495506703706      700.4329115910322
0.03709747122597688       699.2451499524066
0.037356112406552636      698.116459251156
0.03761464196443644       697.0468394872813
0.03787328310424792       696.0362906607826
0.03813225874209787       695.0848127716589
0.03839179093218227       694.1924058199112
0.03863570546763781       693.3904160219217
0.038879157791710306      692.6614120993703
0.03912233240906017       692.0053940522563
0.03936541445670531       691.4223618805803
0.039608589283092806      690.9123155843423
0.039852042024763494      690.4752551635418
0.04009595718542905       690.1111806181792
0.040307879631580334      689.8371562027125
0.04051949849477797       689.6221508750147
0.0407309350144797        689.4661646350852
0.040942310743905544      689.3691974829246
0.04115374734111909       689.3312494185329
0.04136536635920676       689.3523204419097
0.04157728903736024       689.4324105530554
0.04178920745215007       689.5778196485653
0.042000823426259694      689.7804433840131
0.042212258026551035      690.040281759399
0.04242363263153709       690.3573347747233
0.0426350687230549        690.731602429986
0.042846687677050764      691.1630847251863
0.04305861055527523       691.6517816603251
0.04330252486354604       692.2510658588112
0.043545975653630026      692.9259415500196
0.04378914799357473       693.67640873395
0.044032227587420474      694.5024674106025
0.04427540035169028       695.4041175799775
0.04451885198945311       696.3813592420742
0.044762767566824783      697.4341923968932
0.045022299728516735      698.5924126283874
0.04528127533816108       699.8032924607471
0.045539916449880535      701.066831893972
0.045798445979712124      702.3830309280621
0.046057087132201545      703.751889563018
0.04631606282328052       705.1734077988389
0.046575595106862454      706.6475856355253
0.04685215752913061       708.2170157832447
0.04712804796931999       709.8107632390461
0.04740353448742985       711.4288280029285
0.04767888632313835       713.0712100748927
0.04795437311100872       714.7379094549386
0.048230264089928976      716.4289261430657
0.048506827318329566      718.1442601392745
0.04878339054829114       719.7638054232523
0.049059281528753745      721.3579759979135
0.04933476831815475       722.9267718632574
0.0496101201553891        724.4701930192846
0.04988560667502701       725.9882394659951
0.05016149711675364       727.4809112033881
0.050438059540575134      728.9482082314646
0.05069759185254397       730.1412972461582
0.05095656757182859       731.2791133063071
0.05121520875241573       732.3616564119114
0.05147373831031092       733.388926562971
0.051732379450133786      734.3609237594865
0.05199135508799517       735.2776480014567
0.05225088727809108       736.1390992888827
0.0524948018135407        736.8176642231246
0.052738254137607306      737.4283999283911
0.05298142875495131       737.9713064046823
0.05322451080259058       738.4463836519984
0.0534676856289722        738.8536316703396
0.05371113837063701       739.1930504597051
0.05395505353129665       739.4646400200955
0.05416697597743634       739.6263662942919
0.054378594840622414      739.7379333486952
0.05459003136031263       739.7993411833054
0.05480140708972696       739.8105897981225
0.05501284368692898       739.771679193147
0.0552244627050051        739.6826093683779
0.05543638538314697       739.5433803238161
