% Model:              brazing.mph
% Version:            COMSOL 5.3.0.223
% Date:               Oct 24 2018, 05:24
% Dimension:          1
% Nodes:              225
% Expressions:        1
% Description:        Line graph
% x                       Height
0                         663.3207243950516
2.1191841480136804E-4     663.2313220699828
4.2353438892247565E-4     663.1026535245413
6.349689892252786E-4      662.9347187587274
8.463435942227858E-4      662.7275177725409
0.001057779685752053      662.4810505659821
0.001269398639759412      662.1953171390504
0.001481321517995422      661.8703174917464
0.0017252358262731596     661.4361425772146
0.0019686866163640313     660.9707295610192
0.0022118589563155885     660.4740784431607
0.002454938550168189      659.9461892236387
0.0026981113144448556     659.3870619024536
0.0029415629522145732     658.796696479605
0.0031854785295931678     658.1750929550931
0.0034450106912723537     657.4097716039846
0.0037039863009040125     656.6122849324431
0.003962627412610827      655.7826329404686
0.0042211569424298        654.9208156280611
0.004479798094906585      654.0268329952207
0.004738773785972872      653.1006850419471
0.004998306069542035      652.1423717682408
0.005274868491808245      651.0233538040511
0.005550758931995686      649.8866225744559
0.0058262454501036105     648.7321780794553
0.006101597285810183      647.5600203190493
0.006377084073678616      646.370149293238
0.006652975052596927      645.1625650020209
0.006929538280995558      643.9372674453986
0.007206101510950518      642.6698310621479
0.007481992491406557      641.4196260220318
0.007757479280801014      640.1866523250507
0.00803283111802884       638.9709099712042
0.008308317637660222      637.7723989604926
0.008584208079380276      636.5911192929157
0.008860770503195153      635.4270709684736
0.009120302815147717      634.3352490585393
0.00937927853441616       633.2848301132489
0.009637919714987194      632.2758141326021
0.009896449272866283      631.3082011165994
0.010155090412673047      630.3819910652409
0.010414066050518256      629.4971839785256
0.01067359824059789       628.6537798564547
0.010917512776055054      627.8853623451125
0.011160965100129169      627.1686290891917
0.011404139717480647      626.5035800886917
0.01164722176512739       625.8902153436128
0.011890396591516505      625.3285348539554
0.012133849333188814      624.8185386197185
0.012377764493855997      624.360226640903
0.01258968694000722       624.004611022477
0.012801305803204788      623.6901071504924
0.013012742322906452      623.4167150249489
0.013224118052332232      623.1844346458469
0.01343555464954572       622.9932660131864
0.013647173667633327      622.8432091269667
0.013859096345786744      622.7342639871887
0.014071014760598048      622.6835619956508
0.014282630734729056      622.6731020695751
0.01449406533504172       622.7028842089612
0.014705439940049088      622.7729084138093
0.014916876031588231      622.8831746841198
0.015128494985605482      623.0336830198918
0.015340417863851432      623.224433421126
0.01558433217214941       623.4609063030673
0.015827782962260412      623.7570196449747
0.016070955302232025      624.1127734468479
0.016314034896104664      624.5281677086871
0.0165572076604014        625.0032024304925
0.01680065929819124       625.5378776122636
0.01704457487559009       626.1321932540009
0.01730410703726679       626.7808419484967
0.017563082646895985      627.4700130197243
0.01782172375860034       628.1997064676838
0.018080253288416847      628.9699222923749
0.01833889444089119       629.7806604937982
0.018597870131955005      630.631921071953
0.018857402415521692      631.5237040268398
0.019133964837753384      632.4836006563268
0.019409855277906563      633.4619131290968
0.019685341795980367      634.45864144515
0.019960693631652874      635.4737856044862
0.0202361804194872        636.5073456071059
0.020512071398371242      637.5593214530084
0.020788634626735362      638.6297131421942
0.02106519785666259       639.6790339426279
0.021341088837091095      640.7162301801427
0.021616575626458134      641.7413018547378
0.02189192746365859       642.754248966414
0.022167413983262562      643.7550715151713
0.02244330442495508       644.743769501009
0.022719866848742224      645.7203429239275
0.022979399160698737      646.5423023580703
0.023238374879971102      647.341848206936
0.023497016060546046      648.118980470524
0.023755545618429033      648.8736991488347
0.02401418675823971       649.6060042418684
0.024273162396088833      650.3158957496244
0.024532694586172417      651.0033736721032
0.02477660912165014       651.5758731220136
0.02502006144574469       652.1152442802187
0.025263236063116538      652.6214871467186
0.025506318110783622      653.0946017215132
0.025749492937193107      653.534588004603
0.02599294567888585       653.9414459959874
0.026236860839573585      654.3151756956667
0.026448783285734738      654.58639454873
0.02666040214894219       654.8394192778695
0.026871838668653707      655.0742498830847
0.027083214398089334      655.290886364376
0.027294650995312687      655.4893287217435
0.027506270013410168      655.6695769551867
0.02771819269157351       655.831631064706
0.02793011110637494       655.9048429654606
0.028141727080496122      655.9585412309134
0.028353161680798985      655.9927258610644
0.028564536285796558      656.0073968559135
0.028775972377325904      656.0025542154613
0.028987591331333325      655.9781979397068
0.029199514209569403      655.9343280286507
0.02944342851784522       655.752568660563
0.02968687930793418       655.529198249324
0.02993005164788383       655.2642167949336
0.030173131241734534      654.9576242973917
0.0304163040060093        654.6094207566987
0.0306597556437771        654.2196061728539
0.030903671221153783      653.788180545858
0.031163203382828072      653.1708007333795
0.03142217899245488       652.5086373219364
0.03168082010415685       651.8016903115282
0.03193934963397098       651.0499597021553
0.032197990786442934      650.253445493818
0.03245696647750436       649.4121476865156
0.032716498761068635      648.5260662802485
0.03299306118333142       647.4098184949253
0.03326895162351545       646.2726119388122
0.03354443814161999       645.1144466119098
0.03381978997732317       643.9353225142175
0.034095276765188226      642.7352396457362
0.03437116774410313       641.5141980064647
0.03464773097249833       640.2721975964039
0.034924294202460265      638.9638098583988
0.03520018518292322       637.6752010707258
0.03547567197232456       636.406371233385
0.035751023809559274      635.1573203463764
0.036026510329197556      633.9280484097004
0.036302400770924524      632.7185554233561
0.03657896319474637       631.5288413873443
0.036838495506703706      630.4127717309034
0.03709747122597688       629.349266618071
0.037356112406552636      628.338326048847
0.03761464196443644       627.3799500232316
0.03787328310424792       626.4741385412246
0.03813225874209787       625.620891602826
0.03839179093218227       624.8202092080359
0.03863570546763781       624.0959782544477
0.038879157791710306      623.4360146019167
0.03912233240906017       622.8403182504428
0.03936541445670531       622.3088892000261
0.039608589283092806      621.8417274506668
0.039852042024763494      621.4388330023644
0.04009595718542905       621.1002058551193
0.040307879631580334      620.8405493834022
0.04051949849477797       620.6320447449299
0.0407309350144797        620.4746919397022
0.040942310743905544      620.3684909677195
0.04115374734111909       620.3134418289818
0.04136536635920676       620.3095445234885
0.04157728903736024       620.3567990512403
0.04178920745215007       620.461506066296
0.042000823426259694      620.6157840004122
0.042212258026551035      620.8196328535887
0.04242363263153709       621.0730526258259
0.0426350687230549        621.3760433171236
0.042846687677050764      621.7286049274815
0.04305861055527523       622.1307374569001
0.04330252486354604       622.6184893688385
0.043545975653630026      623.174081695818
0.04378914799357473       623.7975144378385
0.044032227587420474      624.4887875949001
0.04427540035169028       625.2479011670031
0.04451885198945311       626.0748551541469
0.044762767566824783      626.9696495563319
0.045022299728516735      627.9511090127763
0.04528127533816108       628.9786341057958
0.045539916449880535      630.0522248353901
0.045798445979712124      631.1718812015596
0.046057087132201545      632.3376032043043
0.04631606282328052       633.5493908436237
0.046575595106862454      634.8072441195183
0.04685215752913061       636.1496755956125
0.04712804796931999       637.5146586604727
0.04740353448742985       638.9021933140986
0.04767888632313835       640.3122795564904
0.04795437311100872       641.7449173876483
0.048230264089928976      643.2001068075717
0.048506827318329566      644.6778478162612
0.04878339054829114       646.0839103700013
0.049059281528753745      647.469084310772
0.04933476831815475       648.8333696385729
0.0496101201553891        650.1767663534041
0.04988560667502701       651.4992744552661
0.05016149711675364       652.8008939441581
0.050438059540575134      654.0816248200807
0.05069759185254397       655.1147019798509
0.05095656757182859       656.1013322258914
0.05121520875241573       657.0415155582018
0.05147373831031092       657.9352519767825
0.051732379450133786      658.7825414816339
0.05199135508799517       659.5833840727548
0.05225088727809108       660.3377797501463
0.0524948018135407        660.9273946406835
0.052738254137607306      661.4583330205412
0.05298142875495131       661.9305948897196
0.05322451080259058       662.3441802482183
0.0534676856289722        662.6990890960382
0.05371113837063701       662.995321433178
0.05395505353129665       663.2328772596387
0.05416697597743634       663.3711552032624
0.054378594840622414      663.467523695936
0.05459003136031263       663.5219827376593
0.05480140708972696       663.5345323284324
0.05501284368692898       663.5051724682559
0.0552244627050051        663.4339031571286
0.05543638538314697       663.3207243950516
