% Model:              brazing.mph
% Version:            COMSOL 5.3.0.223
% Date:               Oct 24 2018, 03:36
% Dimension:          1
% Nodes:              225
% Expressions:        1
% Description:        Line graph
% x                       Height
0                         880.8173367846676
2.02242572596226E-4       880.825219279843
4.040113375593453E-4      880.7574971062473
6.054635867748898E-4      880.6141702638807
8.067573541103817E-4      880.3952387527432
0.0010080510467017985     880.1007025728346
0.001209503071861434      879.7305617241551
0.0014112714639836859     879.2848162067045
0.001613513515825394      878.763466020483
0.001815803045808458      878.3461917408962
0.0020176184164428694     877.8729922341994
0.0022191170764546647     877.3438675003928
0.0024204572175778446     876.7588175394761
0.00262179740518867       876.1178423514497
0.002823296204553664      875.4209419363132
0.0030251118070788686     874.6681162940671
0.003227401660948015      873.8593654247107
0.0034297372965816655     873.0838174440963
0.003631598594156443      872.2618420274349
0.0038331430353414214     871.3934391747267
0.004034528845142556      870.4786088859715
0.004235914622467191      869.5173511611696
0.004437458966299354      868.5096660003206
0.004639320101874085      867.4555534034249
0.004841655511239337      866.3550133704822
0.005043918276497792      865.4012453895645
0.005245706959792293      864.427812273016
0.0054471789681153834     863.4347140208369
0.00564849245128538       862.4219506330268
0.005849805932728159      861.389522109586
0.006051277935873691      860.3374284505143
0.00625306661055245       859.2656696558118
0.006455329363777148      858.1742457254785
0.0066576887471433525     857.1173986729171
0.0068595736811967985     856.0781686123554
0.007061141707903535      855.0565555437935
0.007262551112883539      854.0525594672314
0.007463960555734714      853.0661803826689
0.007665528695965537      852.0974182901065
0.00786741381892875       851.1462731895434
0.0080697734661485        850.2127450809804
0.008272395437950266      849.3876500967191
0.008474540847339949      848.578728546025
0.008676367906616744      847.7859804288981
0.008878035577337231      847.0094057453388
0.009079703197965442      846.2490044953466
0.009281530107084053      845.5047766789218
0.00948367526660416       844.7767222960641
0.009686296889411194      844.064841346774
0.009888748367913874      843.6403080711194
0.010090724718905934      843.2503172332619
0.010292383720552634      842.8948688332015
0.010493883896490891      842.5739628709379
0.010695384145210549      842.2875993464714
0.010897043365029401      842.0357782598018
0.011099020079070253      841.8184996109295
0.011301472064648224      841.635763399854
0.011503924099142101      841.5841125477986
0.011705900863193036      841.5692643307401
0.011907560133099505      841.5912187486784
0.012109060430962503      841.6499758016138
0.012310560654077738      841.7455354895459
0.012512219699917606      841.8778978124752
0.012714196091111104      842.0470627704011
0.012916647604829811      842.253030363324
0.013119269382981878      842.6646995405573
0.013321414683399362      843.1063767425461
0.013523241722808088      843.5780619692899
0.013724909467002238      844.079755220789
0.013926577258472442      844.6114564970434
0.014128404439597363      845.1731657980528
0.014330549975836581      845.7648831238176
0.01453317208336263       846.3866084743375
0.014735531766219815      847.0999739196508
0.014937416940401616      847.8218060699243
0.015138985143475461      848.5521049251582
0.015340394656791169      849.2908704853522
0.015541804135826716      850.0381027505067
0.015743372236141022      850.793801720621
0.015945257239325793      851.5579673956962
0.01614761668334845       852.3305997757312
0.01634987940592303       853.2868411836799
0.016551668047823844      854.2258610906721
0.016753140015983766      855.1476594967074
0.0169544534601584        856.0522364017864
0.017155766903708087      856.9395918059089
0.017357238869994664      857.8097257090745
0.017559027508778132      858.6626381112841
0.01776129022699866       859.4983290125366
0.017963625484858744      860.3682358729012
0.018165486461237414      861.2127761328283
0.018367030641941378      862.0319497923175
0.018568416255992027      862.8257568513692
0.018769801906169285      863.5941973099831
0.018971346195167795      864.3372711681596
0.019173207351754082      865.054978425898
0.019375542861313405      865.7473190831992
0.019577832661189145      866.4859836821219
0.019779648217873542      867.1620294736239
0.019981146975907166      867.7754564577048
0.020182487123025287      868.326264634365
0.020383827220813066      868.8144540036043
0.020585325830972126      869.2400245654229
0.020787141141585735      869.6029763198204
0.020989430597769934      869.9033092667972
0.021191672662378012      870.4062314707909
0.021393441061935803      870.8359304634397
0.02159489309031221       871.1924062447439
0.021796186783028852      871.4756588147035
0.021997480548535182      871.6856881733182
0.022198932795108938      871.8224943205886
0.022400701557758636      871.8860772565141
0.02260294412950465       871.876436981095
0.02280539620920995       871.9402596273766
0.023007373018156245      871.9286899798891
0.02320903233274668       871.8417280386333
0.023410532675187733      871.6793738036084
0.023612032942881025      871.441627274815
0.023813692033404853      871.1284884522526
0.024015668469493705      870.7399573359215
0.024218120028423832      870.2760339258219
0.024420742013481003      869.9002329575391
0.02462288751935683       869.4640285975448
0.02482471476325633       868.9674208458395
0.02502638271145666       868.4104097024227
0.025228050706933344      867.7929951672946
0.025429878092549915      867.1151772404554
0.025632023834248962      866.3769559219048
0.025834646148682177      865.5783312116431
0.026037006051731277      864.7946625854476
0.026238891444565628      863.9649788577207
0.02644045986526205       863.0892800284624
0.026641869595683754      862.1675660976731
0.02684327929182417       861.1998370653524
0.027044847609757647      860.1860929315006
0.02724673283158932       859.1263336961173
0.027449092495796006      858.020559359203
0.02765135518998453       857.0008400003684
0.027853143803698084      855.9685679899468
0.028054615743803996      854.9237433279383
0.028255929159991804      853.8663660143428
0.028457242575555555      852.7964360491607
0.028658714513790734      851.7139534323913
0.028860503124391312      850.6189181640356
0.029062765814231884      849.5113302440926
0.029265100752448706      848.4115557424919
0.02946696141141544       847.3395198933869
0.029668505276199596      846.2952226967772
0.029869890575077548      845.2786641526633
0.03007127591008127       844.289844261045
0.030272819883157453      843.3287630219221
0.03047468072232762       842.395420435295
0.030677015912237836      841.4898165011635
0.030879305594778746      840.6876384038322
0.03108112103494649       839.9191505980767
0.031282619677010744      839.1843530838968
0.03148395970843373       838.4832458612929
0.0316852996905265        837.8158289302647
0.031886798184716555      837.1821022908122
0.032088613378814135      836.5820659429354
0.03229090271766436       836.0157198866344
0.03249314477533616       835.7100569150258
0.03269491316800606       835.4572618488984
0.03289636518952694       835.2573346882524
0.03309765887540427       835.1102754330876
0.033298952634071295      835.0160840834043
0.033500404873789524      834.9747606392024
0.03370217362955133       834.9863051004814
0.03390441619436107       835.0507174672424
0.03410686840969767       835.2463092577717
0.03430884535332711       835.4952663965156
0.0345105048019665        835.7975888834745
0.034712005278138794      836.1532767186483
0.03491350567956333       836.5623299020368
0.03511516490413611       837.0247484336404
0.035317141474908095      837.5405323134586
0.03551959316946952       838.1096815414916
0.035722216260139425      838.8708230503208
0.03592436286389621       839.6721904421923
0.036126191200505704      840.5137837171056
0.03632786023882611       841.395602875061
0.03652952932442421       842.3176479160583
0.036731357802754806      843.2799188400976
0.03693350464234149       844.2824156471787
0.03713612806239678       845.3251383373018
0.03733848789969145       846.4499120283471
0.037540373227224554      847.591336461896
0.03774194158292153       848.7494116379484
0.03794335124849304       849.9241375565044
0.03814476087977932       851.115514217564
0.03834632913270157       852.3235416211272
0.03854821428921239       853.5482197671939
0.038750573887637245      854.7895486557644
0.03895283596123875       856.1420955763709
0.039154623958694366      857.4752559419777
0.039356095285438375      858.7890297525845
0.03955740808971597       860.0834170081915
0.03975872089337115       861.3584177087986
0.03996019221824938       862.6140318544057
0.04016198021260023       863.8502594450127
0.04036424228186526       865.0671004806201
0.040566577948397485      866.2693693954196
0.040768439330593605      867.4321643128013
0.04096998391520435       868.5554852327651
0.04117136993220262       869.6393321553115
0.04137275598532357       870.6837050804401
0.04157430067821714       871.6886040081507
0.04177616224060133       872.6540289384437
0.0419784981588055        873.5799798713191
0.04218078754816035       874.5106595881695
0.04238260269718259       875.364481408391
0.04258410104946696       876.1414453319841
0.04278544079179545       876.8415513589485
0.04298678048479618       877.4647994892845
0.043188278689213704      878.0111897229916
0.043390093592177985      878.4807220600702
0.04359238263785921       878.8733965005202
0.043794623705544454      879.4031513481772
0.04399639111513442       879.8509741066517
0.04419784215819482       880.2168647759439
0.04439913486792596       880.5008233560535
0.044600427650446826      880.7028498469807
0.04480187891170468       880.8229442487253
0.045003646684386715      880.8611065612878
0.04520588825921017       880.8173367846676
