% Model:              brazing.mph
% Version:            COMSOL 5.3.0.223
% Date:               Oct 24 2018, 05:18
% Dimension:          1
% Nodes:              225
% Expressions:        1
% Description:        Line graph
% x                       Height
0                         725.6295739072016
2.02242572596226E-4       725.6065891186855
4.040113375593453E-4      725.5124821745824
6.054635867748898E-4      725.3472530748923
8.067573541103817E-4      725.110901819615
0.0010080510467017985     724.803428408751
0.001209503071861434      724.4248328422998
0.0014112714639836859     723.9751151202615
0.001613513515825394      723.4542752426364
0.001815803045808458      722.9864386237047
0.0020176184164428694     722.4663200059205
0.0022191170764546647     721.8939193892835
0.0024204572175778446     721.269236773794
0.00262179740518867       720.5922721594519
0.002823296204553664      719.8630255462571
0.0030251118070788686     719.0814969342097
0.003227401660948015      718.2476863233097
0.0034297372965816655     717.440986438376
0.003631598594156443      716.5922005472038
0.0038331430353414214     715.7013286497936
0.004034528845142556      714.768370746145
0.004235914622467191      713.7933268362583
0.004437458966299354      712.7761969201332
0.004639320101874085      711.7169809977697
0.004841655511239337      710.6156790691682
0.005043918276497792      709.6137353802113
0.005245706959792293      708.5973214806502
0.0054471789681153834     707.5664373704851
0.00564849245128538       706.5210830497158
0.005849805932728159      705.4612585183424
0.006051277935873691      704.3869637763648
0.00625306661055245       703.2981988237832
0.006455329363777148      702.1949636605973
0.0066576887471433525     701.1280456211402
0.0068595736811967985     700.0814561143189
0.007061141707903535      699.0551951401334
0.007262551112883539      698.0492626985834
0.007463960555734714      697.0636587896694
0.007665528695965537      696.0983834133908
0.00786741381892875       695.1534365697481
0.0080697734661485        694.2288182587411
0.008272395437950266      693.3975786123611
0.008474540847339949      692.5913786541616
0.008676367906616744      691.8102183841429
0.008878035577337231      691.0540978023046
0.009079703197965442      690.3230169086469
0.009281530107084053      689.6169757031697
0.00948367526660416       688.9359741858732
0.009686296889411194      688.2800123567573
0.009888748367913874      687.8581376981663
0.010090724718905934      687.4785277810086
0.010292383720552634      687.1411826052844
0.010493883896490891      686.8461021709934
0.010695384145210549      686.5932864781358
0.010897043365029401      686.3827355267118
0.011099020079070253      686.214449316721
0.011301472064648224      686.0884278481636
0.011503924099142101      686.0817726014714
0.011705900863193036      686.1188243270939
0.011907560133099505      686.199583025031
0.012109060430962503      686.3240486952828
0.012310560654077738      686.4922213378495
0.012512219699917606      686.7041009527305
0.012714196091111104      686.9596875399268
0.012916647604829811      687.2589810994374
0.013119269382981878      687.7293398769418
0.013321414683399362      688.2347175959369
0.013523241722808088      688.7751142564229
0.013724909467002238      689.3505298583995
0.013926577258472442      689.9609644018669
0.014128404439597363      690.6064178868249
0.014330549975836581      691.2868903132737
0.01453317208336263       692.0023816812134
0.014735531766219815      692.7995672641282
0.014937416940401616      693.6103822432225
0.015138985143475461      694.4348266184963
0.015340394656791169      695.2729003899497
0.015541804135826716      696.1246035575824
0.015743372236141022      696.9899361213949
0.015945257239325793      697.8688980813866
0.01614761668334845       698.7614894375579
0.01634987940592303       699.7890675282598
0.016551668047823844      700.8019332406193
0.016753140015983766      701.8000865746359
0.0169544534601584        702.78352753031
0.017155766903708087      703.7522561076415
0.017357238869994664      704.7062723066305
0.017559027508778132      705.6455761272767
0.01776129022699866       706.5701675695802
0.017963625484858744      707.5291247210077
0.018165486461237414      708.4606996684578
0.018367030641941378      709.3648924119303
0.018568416255992027      710.2417029514254
0.018769801906169285      711.091131286943
0.018971346195167795      711.913177418483
0.019173207351754082      712.7078413460458
0.019375542861313405      713.4751230696309
0.019577832661189145      714.2726516124064
0.019779648217873542      715.0115096364325
0.019981146975907166      715.6916971417094
0.020182487123025287      716.3132141282368
0.020383827220813066      716.8760605960148
0.020585325830972126      717.3802365450437
0.020787141141585735      717.825741975323
0.020989430597769934      718.2125768868532
0.021191672662378012      718.7252715880435
0.021393441061935803      719.16725316199
0.02159489309031221       719.5385216086921
0.021796186783028852      719.8390769281506
0.021997480548535182      720.0689191203651
0.022198932795108938      720.2280481853353
0.022400701557758636      720.3164641230617
0.02260294412950465       720.334166933544
0.02280539620920995       720.4094703018213
0.023007373018156245      720.4113915753775
0.02320903233274668       720.3399307542123
0.023410532675187733      720.1950878383261
0.023612032942881025      719.9768628277187
0.023813692033404853      719.6852557223903
0.024015668469493705      719.3202665223404
0.024218120028423832      718.8818952275694
0.024420742013481003      718.4682621512745
0.02462288751935683       717.9943795215316
0.02482471476325633       717.4602473383409
0.02502638271145666       716.865865601702
0.025228050706933344      716.2112343116153
0.025429878092549915      715.4963534680805
0.025632023834248962      714.7212230710979
0.025834646148682177      713.8858431206672
0.026037006051731277      713.0504204433306
0.026238891444565628      712.1695205390055
0.02644045986526205       711.2431434076918
0.026641869595683754      710.2712890493895
0.02684327929182417       709.2539574640986
0.027044847609757647      708.191148651819
0.02724673283158932       707.0828626125511
0.027449092495796006      705.9290993462944
0.02765135518998453       704.8124027545865
0.027853143803698084      703.6850879735273
0.028054615743803996      702.5471550031169
0.028255929159991804      701.3986038433553
0.028457242575555555      700.2394344942423
0.028658714513790734      699.0696469557782
0.028860503124391312      697.889241227963
0.029062765814231884      696.6982173107963
0.029265100752448706      695.5159095079555
0.02946696141141544       694.3617137143209
0.029668505276199596      693.2356299298924
0.029869890575077548      692.1376581546699
0.03007127591008127       691.0677983886536
0.030272819883157453      690.0260506318434
0.03047468072232762       689.0124148842393
0.030677015912237836      688.0268911458412
0.030879305594778746      687.1290014376518
0.03108112103494649       686.2719615360712
0.031282619677010744      685.4557714410994
0.03148395970843373       684.6804311527363
0.0316852996905265        683.945940670982
0.031886798184716555      683.2522999958367
0.032088613378814135      682.5995091273
0.03229090271766436       681.9875680653722
0.03249314477533616       681.5846896253996
0.03269491316800606       681.2416640336398
0.03289636518952694       680.9584912900929
0.03309765887540427       680.7351713947588
0.033298952634071295      680.5717043476376
0.033500404873789524      680.4680901487293
0.03370217362955133       680.4243287980336
0.03390441619436107       680.4404202955508
0.03410686840969767       680.576385885003
0.03430884535332711       680.7726213914924
0.0345105048019665        681.0291268150191
0.034712005278138794      681.3459021555832
0.03491350567956333       681.7229474131846
0.03511516490413611       682.1602625878231
0.035317141474908095      682.6578476794989
0.03551959316946952       683.2157026882121
0.035722216260139425      683.9346583574014
0.03592436286389621       684.6995214297497
0.036126191200505704      685.5102919052571
0.03632786023882611       686.3669697839233
0.03652952932442421       687.2695550657486
0.036731357802754806      688.218047750733
0.03693350464234149       689.2124478388762
0.03713612806239678       690.2527553301786
0.03733848789969145       691.3647667533036
0.037540373227224554      692.4984490190877
0.03774194158292153       693.6538021275314
0.03794335124849304       694.8308260786345
0.03814476087977932       696.0295208723968
0.03834632913270157       697.2498865088186
0.03854821428921239       698.4919229878998
0.038750573887637245      699.7556303096402
0.03895283596123875       701.0964789345425
0.039154623958694366      702.4210945577668
0.039356095285438375      703.7294771793132
0.03955740808971597       705.0216267991815
0.03975872089337115       706.2975434173718
0.03996019221824938       707.5572270338843
0.04016198021260023       708.8006776487186
0.04036424228186526       710.0278952618751
0.040566577948397485      711.2411202545871
0.040768439330593605      712.4142295886743
0.04096998391520435       713.5472232641365
0.04117136993220262       714.6401012809739
0.04137275598532357       715.6928636391864
0.04157430067821714       716.7055103387739
0.04177616224060133       717.6780413797368
0.0419784981588055        718.6104567620745
0.04218078754816035       719.5298355856111
0.04238260269718259       720.3773504208708
0.04258410104946696       721.1530012678537
0.04278544079179545       721.8567881265598
0.04298678048479618       722.4887109969891
0.043188278689213704      723.0487698791413
0.043390093592177985      723.536964773017
0.04359238263785921       723.9532956786156
0.043794623705544454      724.4339651602596
0.04399639111513442       724.8371675838833
0.04419784215819482       725.1629029494869
0.04439913486792596       725.4111712570702
0.044600427650446826      725.5819725066333
0.04480187891170468       725.6753066981762
0.045003646684386715      725.691173831699
0.04520588825921017       725.6295739072016
