% Model:              brazing.mph
% Version:            COMSOL 5.3.0.223
% Date:               Oct 24 2018, 02:56
% Dimension:          1
% Nodes:              225
% Expressions:        1
% Description:        Line graph
% x                       Height
0                         658.2543147029257
2.1191841480136804E-4     658.1508827002541
4.2353438892247565E-4     658.0059186101464
6.349689892252786E-4      657.8194224326023
8.463435942227858E-4      657.5913941676221
0.001057779685752053      657.3218338152059
0.001269398639759412      657.010741375353
0.001481321517995422      656.6581168480642
0.0017252358262731596     656.1897387621613
0.0019686866163640313     655.6877860588579
0.0022118589563155885     655.1522587381538
0.002454938550168189      654.5831568000493
0.0026981113144448556     653.9804802445447
0.0029415629522145732     653.344229071639
0.0031854785295931678     652.6744032813332
0.0034450106912723537     651.8549232675293
0.0037039863009040125     651.0017871706059
0.003962627412610827      650.1149949905626
0.0042211569424298        649.1945467274002
0.004479798094906585      648.2404423811183
0.004738773785972872      647.2526819517166
0.004998306069542035      646.2312654391956
0.005274868491808245      645.0396802168544
0.005550758931995686      643.8298224713308
0.0058262454501036105     642.6016922026243
0.006101597285810183      641.3552894107357
0.006377084073678616      640.0906140956649
0.006652975052596927      638.8076662574113
0.006929538280995558      637.5064458959753
0.007206101510950518      636.1592367668576
0.007481992491406557      634.830215371513
0.007757479280801014      633.5193817099414
0.00803283111802884       632.2267357821429
0.008308317637660222      630.9522775881176
0.008584208079380276      629.6960071278651
0.008860770503195153      628.4579244013858
0.009120302815147717      627.2973181435348
0.00937927853441616       626.1805852887072
0.009637919714987194      625.1077258369029
0.009896449272866283      624.078739788122
0.010155090412673047      623.0936271423647
0.010414066050518256      622.1523878996304
0.01067359824059789       621.2550220599197
0.010917512776055054      620.4388426747283
0.011160965100129169      619.6774518505108
0.011404139717480647      618.9708495872666
0.01164722176512739       618.3190358849962
0.011890396591516505      617.7220107436995
0.012133849333188814      617.1797741633762
0.012377764493855997      616.6923261440268
0.01258968694000722       616.3141022926013
0.012801305803204788      615.9797561415265
0.013012742322906452      615.6892876908022
0.013224118052332232      615.4426969404286
0.01343555464954572       615.2399838904058
0.013647173667633327      615.0811485407334
0.013859096345786744      614.9661908914118
0.014071014760598048      614.9117633842524
0.014282630734729056      614.9004060168115
0.01449406533504172       614.9321187890893
0.014705439940049088      615.0069017010857
0.014916876031588231      615.1247547528011
0.015128494985605482      615.2856779442346
0.015340417863851432      615.4896712753872
0.01558433217214941       615.7456901465342
0.015827782962260412      616.0641467253788
0.016070955302232025      616.4450410119208
0.016314034896104664      616.8883730061604
0.0165572076604014        617.3941427080978
0.01680065929819124       617.9623501177324
0.01704457487559009       618.5929952350647
0.01730410703726679       619.2836071299123
0.017563082646895985      620.0175852631913
0.01782172375860034       620.7949296349015
0.018080253288416847      621.6156402450429
0.01833889444089119       622.4797170936158
0.018597870131955005      623.3871601806197
0.018857402415521692      624.3379695060551
0.019133964837753384      625.3595191245545
0.019409855277906563      626.4011040544283
0.019685341795980367      627.4627242956763
0.019960693631652874      628.5443798482985
0.0202361804194872        629.6460707122952
0.020512071398371242      630.767796887666
0.020788634626735362      631.9095583744112
0.02106519785666259       633.0224804826795
0.021341088837091095      634.1233001844051
0.021616575626458134      635.2120174795881
0.02189192746365859       636.2886323682283
0.022167413983262562      637.3531448503261
0.02244330442495508       638.4055549258808
0.022719866848742224      639.4458625948931
0.022979399160698737      640.3218716127927
0.023238374879971102      641.1750543903366
0.023497016060546046      642.0054109275251
0.023755545618429033      642.8129412243577
0.02401418675823971       643.5976452808352
0.024273162396088833      644.3595230969564
0.024532694586172417      645.0985746727224
0.02477660912165014       645.7133731773021
0.02502006144574469       646.2937346575058
0.025263236063116538      646.8396591133331
0.025506318110783622      647.3511465447843
0.025749492937193107      647.8281969518598
0.02599294567888585       648.2708103345589
0.026236860839573585      648.678986692882
0.026448783285734738      648.97712388437
0.02666040214894219       649.2553281549045
0.026871838668653707      649.5135995044853
0.027083214398089334      649.7519379331125
0.027294650995312687      649.9703434407862
0.027506270013410168      650.168816027506
0.02771819269157351       650.3473556932723
0.02793011110637494       650.4347096782325
0.028141727080496122      650.5003132140664
0.028353161680798985      650.5441663007739
0.028564536285796558      650.5662689383549
0.028775972377325904      650.56662112681
0.028987591331333325      650.5452228661385
0.029199514209569403      650.5020741563408
0.02944342851784522       650.3158792150887
0.02968687930793418       650.084818183131
0.02993005164788383       649.8088910604678
0.030173131241734534      649.4880978470991
0.0304163040060093        649.122438543025
0.0306597556437771        648.7119131482452
0.030903671221153783      648.2565216627601
0.031163203382828072      647.6075794279268
0.03142217899245488       646.9113771128798
0.03168082010415685       646.1679147176189
0.03193934963397098       645.3771922421447
0.032197990786442934      644.5392096864568
0.03245696647750436       643.653967050555
0.032716498761068635      642.7214643344398
0.03299306118333142       641.5445318399609
0.03326895162351545       640.3457733199591
0.03354443814161999       639.1251887744343
0.03381978997732317       637.8827782033867
0.034095276765188226      636.6185416068165
0.03437116774410313       635.3324789847231
0.03464773097249833       634.024590337107
0.034924294202460265      632.6386445321548
0.03520018518292322       631.2738102072584
0.03547567197232456       629.9300873624181
0.035751023809559274      628.6074759976335
0.036026510329197556      627.3059761129051
0.036302400770924524      626.0255877082324
0.03657896319474637       624.7663107836157
0.036838495506703706      623.582522662799
0.03709747122597688       622.4540524735916
0.037356112406552636      621.3809002159932
0.03761464196443644       620.3630658900041
0.03787328310424792       619.4005494956244
0.03813225874209787       618.4933510328536
0.03839179093218227       617.6414705016923
0.03863570546763781       616.8721302596308
0.038879157791710306      616.1705353414907
0.03912233240906017       615.5366857472717
0.03936541445670531       614.9705814769741
0.039608589283092806      614.4722225305981
0.039852042024763494      614.041608908143
0.04009595718542905       613.6787406096095
0.040307879631580334      613.4012485186967
0.04051949849477797       613.1781114714834
0.0407309350144797        613.0093294679697
0.040942310743905544      612.8949025081558
0.04115374734111909       612.8348305920417
0.04136536635920676       612.829113719627
0.04157728903736024       612.8777518909121
0.04178920745215007       612.9870605640742
0.042000823426259694      613.1491056129877
0.042212258026551035      613.3638870376524
0.04242363263153709       613.6314048380683
0.0426350687230549        613.9516590142359
0.042846687677050764      614.3246495661544
0.04305861055527523       614.7503764938244
0.04330252486354604       615.2703857687413
0.043545975653630026      615.8614895670696
0.04378914799357473       616.5236878888093
0.044032227587420474      617.2569807339604
0.04427540035169028       618.0613681025231
0.04451885198945311       618.9368499944969
0.044762767566824783      619.8834264098824
0.045022299728516735      620.9234367471344
0.04528127533816108       622.0126631618438
0.045539916449880535      623.1511056540106
0.045798445979712124      624.3387642236349
0.046057087132201545      625.5756388707171
0.04631606282328052       626.8617295952563
0.046575595106862454      628.1970363972531
0.04685215752913061       629.6185458375061
0.04712804796931999       631.0641517117741
0.04740353448742985       632.5338540200572
0.04767888632313835       634.0276527623554
0.04795437311100872       635.5455479386687
0.048230264089928976      637.087539548997
0.048506827318329566      638.6536275933405
0.04878339054829114       640.1347128361418
0.049059281528753745      641.5938611157745
0.04933476831815475       643.031072432239
0.0496101201553891        644.4463467855347
0.04988560667502701       645.8396841756625
0.05016149711675364       647.2110846026213
0.050438059540575134      648.5605480664119
0.05069759185254397       649.6490919295503
0.05095656757182859       650.6882178298933
0.05121520875241573       651.6779257674407
0.05147373831031092       652.6182157421927
0.051732379450133786      653.5090877541495
0.05199135508799517       654.3505418033105
0.05225088727809108       655.1425778896762
0.0524948018135407        655.7623295122953
0.052738254137607306      656.3201130646707
0.05298142875495131       656.8159285468021
0.05322451080259058       657.2497759586897
0.0534676856289722        657.621655300334
0.05371113837063701       657.931566571734
0.05395505353129665       658.1795097728905
0.05416697597743634       658.3245002946189
0.054378594840622414      658.4247227819633
0.05459003136031263       658.4801772349238
0.05480140708972696       658.4908636535002
0.05501284368692898       658.456782037693
0.0552244627050051        658.3779323875012
0.05543638538314697       658.2543147029257
