% Model:              brazing.mph
% Version:            COMSOL 5.3.0.223
% Date:               Oct 24 2018, 02:22
% Dimension:          1
% Nodes:              161
% Expressions:        1
% Description:        Line graph
% x                       Height
0                         716.7761537393053
1.9693985890610136E-4     716.7272549890668
3.9298030043864816E-4     716.6919149492384
5.884188308682271E-4      716.6701336198194
7.835557095112735E-4      716.6619110008105
9.786925881542028E-4      716.6672470922114
0.0011741311185834375     716.686141894022
0.0013701715601154056     716.7185954062425
0.0015671114190207022     716.7646076288727
0.0017642608961497635     716.5263199580288
0.0019605081241513326     716.2838546659856
0.0021561515411346144     716.0372117527431
0.002351492352702621      715.7863912183014
0.0025468331642698894     715.5313930626603
0.0027424765812509564     715.2722172858198
0.0029387238092488436     715.0088638877801
0.0031358732863727766     714.7413328685409
0.0033326885608882563     714.3814497222253
0.0035286060983021257     714.0253979100308
0.0037239228519497995     713.6731774319572
0.003918938519653848      713.324788288005
0.004113954187357973      712.9802304781739
0.004309270941005876      712.6395040024638
0.004505188478420127      712.3026088608749
0.004702003752936137      711.969545053407
0.004899138702461749      711.6310932051678
0.005095371599302965      711.3080055473465
0.005291000816927052      711.0002820799431
0.005486327495291825      710.7079228029577
0.005681654173656831      710.4309277163903
0.0058772833912816074     710.169296820241
0.0060735162881239745     709.9230301145096
0.006270651237651189      709.6921275991962
0.006467582778148322      709.5221919119772
0.006663615013526554      709.3844714484277
0.006859045413116663      709.2789662085472
0.0070541741987231454     709.2056761923363
0.007249302984329781      709.1646013997947
0.007444733383920351      709.1557418309226
0.007640765619299351      709.1790974857197
0.007837697159797551      709.2346683641862
0.008034634474091872      709.2266760837563
0.008230672405352359      709.2551829542494
0.008426108448549354      709.3201889756651
0.008621242851524007      709.4216941480039
0.008816377254498534      709.5596984712654
0.009011813297695145      709.7342019454497
0.009207851228955002      709.9452045705569
0.00940478854324844       710.192706346587
0.00960192671152544       710.5078165848338
0.00979816278359587       710.836622088826
0.009993795147248338      711.1791228585635
0.010189124956984269      711.5353188940464
0.010384454766719743      711.9052101952747
0.010580087130370853      712.2887967622482
0.010776323202439026      712.6860785949672
0.01097346137071288       713.0970556934313
0.011170281912174305      713.4688060078342
0.011366204645540166      713.8498179279771
0.011561526547508357      714.24009145386
0.011756547339625332      714.6396265854827
0.011951568131742307      715.0484233228453
0.0121468900337105        715.4664816659481
0.012342812767076368      715.8938016147906
0.0125396333085378        716.3303831693731
0.012736771215691979      716.6204265922951
0.012933007030171178      716.9082291929107
0.013128639138602195      717.1937909712204
0.013323968694306592      717.4771119272239
0.013519298250011432      717.7581920609213
0.013714930358443784      718.0370313723125
0.0139111661729252        718.3136298613977
0.014108304080082462      718.5879875281767
0.014305241249097643      718.5837806183314
0.014501279037039759      718.5844384195467
0.014696714938233999      718.5899609318225
0.014891849199866372      718.6003481551589
0.015086983461498874      718.6156000895558
0.015282419362693495      718.635716735013
0.01547845715063625       718.6606980915309
0.015675394319652317      718.6905441591091
0.015872325504405583      718.3181673622942
0.01606835738884011       717.9531164235705
0.016263787440706973      717.5953913429382
0.016458915880206496      717.2449921203975
0.016654044319705866      716.901918755948
0.016849474371572262      716.5661712495901
0.017045506256006017      716.2377496013235
0.017242437440758204      715.9166538111483
0.01743957168037589       715.3698263164564
0.017635803876907424      714.813487513893
0.01783143240066149       714.2476374034585
0.018026758388388308      713.6722759851527
0.01822208437611492       713.0874032589757
0.01841771289986836       712.4930192249274
0.018613945096398854      711.8891238830079
0.018811079336015085      711.275717233217
0.019007894687321662      710.634923031279
0.01920381230049143       709.9951863632967
0.019399129129200405      709.3565072292699
0.01959414487161704       708.7188856291991
0.01978916061403359       708.082321563084
0.01998447744274231       707.4468150309245
0.020180395055911654      706.8123660327209
0.020377210407217645      706.1789745684729
0.020574360469106157      705.6170787755557
0.020770608273960874      705.0742309422797
0.020966252262493188      704.5504310686454
0.021161593642948652      704.0456791546522
0.021356935023404883      703.5599752003005
0.021552579011939476      703.0933192055903
0.021748826816797996      702.6457111705216
0.021945976878691802      702.2171510950942
0.022142917141692885      701.8985140448129
0.022338957981867254      701.6216685306878
0.022534396907280062      701.3866145527185
0.02272953417907009       701.1933521109054
0.02292467145086023       701.0418812052483
0.02312011037627338       700.9322018357473
0.02331615121644832       700.8643140024024
0.023513091479450195      700.8382177052134
0.023710025135207962      700.7672077208588
0.02390605945730262       700.743333286054
0.024101491924457957      700.766594400799
0.024296622768016963      700.8369910650938
0.024491753611575823      700.9545232789382
0.02468718607873073       701.1191910423323
0.024883220400824673      701.3309943552762
0.025080154056581445      701.5899332177697
0.025277299572591536      701.9666566874913
0.025473542893039384      702.362658197012
0.02566918243840792       702.7779377463318
0.025864519396400307      703.2124953354505
0.026059856354392216      703.6663309643683
0.026255495899759323      704.1394446330851
0.026451739220204794      704.6318363416008
0.026648884736211575      705.1435060899156
0.02684569473774919       705.708634886126
0.027041607073256636      706.2785226375823
0.027236918672681274      706.8531693442847
0.027431929210095855      707.432575006233
0.027626939747510428      708.0167396234276
0.027822251346935042      708.6056631958681
0.028018163682442445      709.1993457235548
0.028214973683980002      709.7977872064874
0.028412120943583204      710.3753006726827
0.028608365984047285      710.9412537230687
0.02880400723361381       711.4956463576452
0.02899934588786498       712.0384785764127
0.02919468454211669       712.5697503793708
0.029390325791684838      713.0894617665198
0.02958657083215161       713.5976127378594
0.029783718091758563      714.0942032933898
0.029980652759780888      714.4230690133342
0.030176688080480362      714.753757043506
0.030372121537075924      715.0862673839046
0.03056725336547531       715.4206000345305
0.030762385193874833      715.7567549953835
0.030957818650470807      716.0947322664636
0.031153853971170976      716.4345318477708
0.031350788639194264      716.7761537393053
