% Model:              brazing.mph
% Version:            COMSOL 5.3.0.223
% Date:               Oct 24 2018, 05:53
% Dimension:          1
% Nodes:              161
% Expressions:        1
% Description:        Line graph
% x                       Height
0                         663.3595291239218
1.9693985890610136E-4     663.3402035245599
3.9298030043864816E-4     663.3288159737425
5.884188308682271E-4      663.3253664714696
7.835557095112735E-4      663.3298550177414
9.786925881542028E-4      663.3422816125577
0.0011741311185834375     663.3626462559185
0.0013701715601154056     663.390948947824
0.0015671114190207022     663.427189688274
0.0017642608961497635     663.1833425320106
0.0019605081241513326     662.9341807857194
0.0021561515411346144     662.6797044494011
0.002351492352702621      662.4199135230552
0.0025468331642698894     662.154808006682
0.0027424765812509564     661.884387900281
0.0029387238092488436     661.6086532038529
0.0031358732863727766     661.3276039173971
0.0033326885608882563     660.9428586286919
0.0035286060983021257     660.5629379244064
0.0037239228519497995     660.1878418045404
0.003918938519653848      659.8175702690943
0.004113954187357973      659.4521233180677
0.004309270941005876      659.091500951461
0.004505188478420127      658.7357031692737
0.004702003752936137      658.3847299715063
0.004899138702461749      658.0190028546226
0.005095371599302965      657.6710577635581
0.005291000816927052      657.3408946983124
0.005486327495291825      657.0285136588856
0.005681654173656831      656.7339146452779
0.0058772833912816074     656.457097657489
0.0060735162881239745     656.1980626955191
0.006270651237651189      655.9568097593682
0.006467582778148322      655.7688034499793
0.006663615013526554      655.615966575483
0.006859045413116663      655.4982991358796
0.0070541741987231454     655.415801131169
0.007249302984329781      655.3684725613512
0.007444733383920351      655.3563134264263
0.007640765619299351      655.379323726394
0.007837697159797551      655.4375034612546
0.008034634474091872      655.4416482839342
0.008230672405352359      655.4846420236169
0.008426108448549354      655.5664846803024
0.008621242851524007      655.687176253991
0.008816377254498534      655.8467167446826
0.009011813297695145      656.045106152377
0.009207851228955002      656.2823444770744
0.00940478854324844       656.5584317187748
0.00960192671152544       656.894077362695
0.00979816278359587       657.2456060515228
0.009993795147248338      657.6130177852579
0.010189124956984269      657.9963125639003
0.010384454766719743      658.3954903874502
0.010580087130370853      658.8105512559075
0.010776323202439026      659.2414951692723
0.01097346137071288       659.6883221275446
0.011170281912174305      660.0895931506582
0.011366204645540166      660.5001996763104
0.011561526547508357      660.9201417045015
0.011756547339625332      661.349419235231
0.011951568131742307      661.7880322684993
0.0121468900337105        662.2359808043061
0.012342812767076368      662.6932648426516
0.0125396333085378        663.1598843835358
0.012736771215691979      663.4699524541849
0.012933007030171178      663.776662686736
0.013128639138602195      664.0800150811889
0.013323968694306592      664.3800096375438
0.013519298250011432      664.6766463558006
0.013714930358443784      664.9699252359592
0.0139111661729252        665.2598462780197
0.014108304080082462      665.5464094819821
0.014305241249097643      665.551200268122
0.014501279037039759      665.5557735681833
0.014696714938233999      665.5601293821663
0.014891849199866372      665.5642677100708
0.015086983461498874      665.5681885518968
0.015282419362693495      665.5718919076443
0.01547845715063625       665.5753777773132
0.015675394319652317      665.5786461609036
0.015872325504405583      665.1991250202396
0.01606835738884011       664.8210617890771
0.016263787440706973      664.4444564674155
0.016458915880206496      664.0693090552555
0.016654044319705866      663.6956195525967
0.016849474371572262      663.3233879594391
0.017045506256006017      662.9526142757827
0.017242437440758204      662.5832985016276
0.01743957168037589       661.990323954592
0.017635803876907424      661.3857777045797
0.01783143240066149       660.7696597515907
0.018026758388388308      660.1419700956252
0.01822208437611492       659.5027087366831
0.01841771289986836       658.8518756747644
0.018613945096398854      658.1894709098691
0.018811079336015085      657.5154944419972
0.019007894687321662      656.8030768597464
0.01920381230049143       656.0929738199599
0.019399129129200405      655.3851853226378
0.01959414487161704       654.67971136778
0.01978916061403359       653.9765519553864
0.01998447744274231       653.2757070854572
0.020180395055911654      652.5771767579922
0.020377210407217645      651.8809609729916
0.020574360469106157      651.2485738203769
0.020770608273960874      650.6392967046023
0.020966252262493188      650.053129625668
0.021161593642948652      649.4900725835737
0.021356935023404883      648.9501255783196
0.021552579011939476      648.4332886099058
0.021748826816797996      647.9395616783321
0.021945976878691802      647.4689447835985
0.022142917141692885      647.1014866141572
0.022338957981867254      646.7812765484674
0.022534396907280062      646.5083145865287
0.02272953417907009       646.2826007283417
0.02292467145086023       646.104134973906
0.02312011037627338       645.9729173232215
0.02331615121644832       645.8889477762885
0.023513091479450195      645.852226333107
0.023710025135207962      645.7811458506252
0.02390605945730262       645.7622901550137
0.024101491924457957      645.7956592462724
0.024296622768016963      645.8812531244013
0.024491753611575823      646.0190717894002
0.02468718607873073       646.2091152412695
0.024883220400824673      646.4513834800089
0.025080154056581445      646.7458765056184
0.025277299572591536      647.1513435964458
0.025473542893039384      647.5805125396904
0.02566918243840792       648.0333833353518
0.025864519396400307      648.5099559834304
0.026059856354392216      649.0102304839259
0.026255495899759323      649.5342068368383
0.026451739220204794      650.0818850421678
0.026648884736211575      650.6532650999143
0.02684569473774919       651.2736442503547
0.027041607073256636      651.8999633823713
0.027236918672681274      652.532222495964
0.027431929210095855      653.1704215911329
0.027626939747510428      653.814560667878
0.027822251346935042      654.4646397261992
0.028018163682442445      655.1206587660967
0.028214973683980002      655.7826177875702
0.028412120943583204      656.414088891886
0.028608365984047285      657.0329514901232
0.02880400723361381       657.6392055822824
0.02899934588786498       658.2328511683633
0.02919468454211669       658.8138882483659
0.029390325791684838      659.3823168222902
0.02958657083215161       659.9381368901363
0.029783718091758563      660.4813484519041
0.029980652759780888      660.8517427854399
0.030176688080480362      661.2191023333947
0.030372121537075924      661.5834270957685
0.03056725336547531       661.9447170725612
0.030762385193874833      662.3029722637729
0.030957818650470807      662.6581926694035
0.031153853971170976      663.0103782894532
0.031350788639194264      663.3595291239218
