% Model:              brazing.mph
% Version:            COMSOL 5.3.0.223
% Date:               Oct 24 2018, 05:28
% Dimension:          1
% Nodes:              161
% Expressions:        1
% Description:        Line graph
% x                       Height
0                         691.9438188358702
1.9693985890610136E-4     691.8975605351798
3.9298030043864816E-4     691.8646118794994
5.884188308682271E-4      691.8449728688283
7.835557095112735E-4      691.8386435031671
9.786925881542028E-4      691.8456237825155
0.0011741311185834375     691.8659137068736
0.0013701715601154056     691.8995132762412
0.0015671114190207022     691.9464224906186
0.0017642608961497635     691.7098288535772
0.0019605081241513326     691.4693941692364
0.0021561515411346144     691.2251184375962
0.002351492352702621      690.9770016586568
0.0025468331642698894     690.7250438324181
0.0027424765812509564     690.4692449588803
0.0029387238092488436     690.209605038043
0.0031358732863727766     689.9461240699067
0.0033326885608882563     689.5871727998391
0.0035286060983021257     689.2323209356547
0.0037239228519497995     688.8815684773532
0.003918938519653848      688.5349154249346
0.004113954187357973      688.1923617783992
0.004309270941005876      687.853907537747
0.004505188478420127      687.5195527029778
0.004702003752936137      687.1892972740916
0.004899138702461749      686.8515812881162
0.005095371599302965      686.529197438218
0.005291000816927052      686.2221457243968
0.005486327495291825      685.9304261466527
0.005681654173656831      685.6540387049856
0.0058772833912816074     685.3929833993956
0.0060735162881239745     685.1472602298825
0.006270651237651189      684.9168691964464
0.006467582778148322      684.7459945077974
0.006663615013526554      684.6069464209346
0.006859045413116663      684.4997249358587
0.0070541741987231454     684.4243300525694
0.007249302984329781      684.3807617710668
0.007444733383920351      684.3690200913508
0.007640765619299351      684.3891050134214
0.007837697159797551      684.4410165372786
0.008034634474091872      684.4308925048961
0.008230672405352359      684.4570107647413
0.008426108448549354      684.5193713168144
0.008621242851524007      684.6179741611153
0.008816377254498534      684.7528192976441
0.009011813297695145      684.9239067264008
0.009207851228955002      685.1312364473854
0.00940478854324844       685.3748084605978
0.00960192671152544       685.6833057228421
0.00979816278359587       686.0056440824413
0.009993795147248338      686.3418235393954
0.010189124956984269      686.6918440937043
0.010384454766719743      687.0557057453681
0.010580087130370853      687.4334084943868
0.010776323202439026      687.8249523407603
0.01097346137071288       688.2303372844888
0.011170281912174305      688.595307625197
0.011366204645540166      688.9697965718877
0.011561526547508357      689.3538041245612
0.011756547339625332      689.7473302832174
0.011951568131742307      690.1503750478561
0.0121468900337105        690.5629384184774
0.012342812767076368      690.9850203950814
0.0125396333085378        691.416620977668
0.012736771215691979      691.7000408809922
0.012933007030171178      691.9817796055446
0.013128639138602195      692.2618371513256
0.013323968694306592      692.5402135183346
0.013519298250011432      692.816908706572
0.013714930358443784      693.0919227160376
0.0139111661729252        693.3652555467316
0.014108304080082462      693.6369071986538
0.014305241249097643      693.6289883640427
0.014501279037039759      693.626221832517
0.014696714938233999      693.6286076040769
0.014891849199866372      693.6361456787225
0.015086983461498874      693.6488360564535
0.015282419362693495      693.6666787372701
0.01547845715063625       693.6896737211723
0.015675394319652317      693.71782100816
0.015872325504405583      693.3452280946417
0.01606835738884011       692.9801680589658
0.016263787440706973      692.622640901132
0.016458915880206496      692.2726466211404
0.016654044319705866      691.9301852189913
0.016849474371572262      691.5952566946843
0.017045506256006017      691.2678610482195
0.017242437440758204      690.947998279597
0.01743957168037589       690.4029424342187
0.017635803876907424      689.8487489087635
0.01783143240066149       689.2854177032315
0.018026758388388308      688.7129488176221
0.01822208437611492       688.1313422519357
0.01841771289986836       687.5405980061724
0.018613945096398854      686.9407160803322
0.018811079336015085      686.3316964744148
0.019007894687321662      685.693380594865
0.01920381230049143       685.0564531092884
0.019399129129200405      684.4209140176852
0.01959414487161704       683.786763320055
0.01978916061403359       683.1540010163981
0.01998447744274231       682.5226271067144
0.020180395055911654      681.892641591004
0.020377210407217645      681.2640444692668
0.020574360469106157      680.7056537858773
0.020770608273960874      680.1664414648069
0.020966252262493188      679.6464075060553
0.021161593642948652      679.1455519096226
0.021356935023404883      678.6638746755087
0.021552579011939476      678.2013758037137
0.021748826816797996      677.7580552942377
0.021945976878691802      677.3339131470806
0.022142917141692885      677.0183044674183
0.022338957981867254      676.744279166319
0.022534396907280062      676.5118372437827
0.02272953417907009       676.3209786998092
0.02292467145086023       676.1717035343987
0.02312011037627338       676.0640117475513
0.02331615121644832       675.9979033392667
0.023513091479450195      675.9733783095452
0.023710025135207962      675.9056414695025
0.02390605945730262       675.8849522722262
0.024101491924457957      675.9113107177162
0.024296622768016963      675.9847168059727
0.024491753611575823      676.1051705369955
0.02468718607873073       676.2726719107847
0.024883220400824673      676.4872209273402
0.025080154056581445      676.7488175866622
0.025277299572591536      677.1253930229034
0.025473542893039384      677.521392403546
0.02566918243840792       677.9368157285905
0.025864519396400307      678.3716629980366
0.026059856354392216      678.8259342118845
0.026255495899759323      679.2996293701339
0.026451739220204794      679.792748472785
0.026648884736211575      680.3052915198379
0.02684569473774919       680.870358237523
0.027041607073256636      681.4402855656878
0.027236918672681274      682.0150735043327
0.027431929210095855      682.5947220534578
0.027626939747510428      683.1792312130626
0.027822251346935042      683.7686009831474
0.028018163682442445      684.3628313637123
0.028214973683980002      684.9619223547571
0.028412120943583204      685.5388086293756
0.028608365984047285      686.104401467242
0.02880400723361381       686.6587008683562
0.02899934588786498       687.2017068327182
0.02919468454211669       687.733419360328
0.029390325791684838      688.2538384511857
0.02958657083215161       688.7629641052913
0.029783718091758563      689.2607963226446
0.029980652759780888      689.5897119020282
0.030176688080480362      689.9204738342029
0.030372121537075924      690.2530821191689
0.03056725336547531       690.5875367569265
0.030762385193874833      690.9238377474754
0.030957818650470807      691.2619850908156
0.031153853971170976      691.6019787869473
0.031350788639194264      691.9438188358702
