% Model:              brazing.mph
% Version:            COMSOL 5.3.0.223
% Date:               Oct 24 2018, 05:50
% Dimension:          1
% Nodes:              225
% Expressions:        1
% Description:        Line graph
% x                       Height
0                         705.7810314104291
2.02242572596226E-4       705.7652536916028
4.040113375593453E-4      705.6820047593934
6.054635867748898E-4      705.5312846138012
8.067573541103817E-4      705.3130932548258
0.0010080510467017985     705.0274306824675
0.001209503071861434      704.6742968967261
0.0014112714639836859     704.2536918976017
0.001613513515825394      703.7656156850944
0.001815803045808458      703.3293642234855
0.0020176184164428694     702.843469141322
0.0022191170764546647     702.3079304386035
0.0024204572175778446     701.7227481153304
0.00262179740518867       701.0879221715026
0.002823296204553664      700.4034526071198
0.0030251118070788686     699.6693394221824
0.003227401660948015      698.8855826166902
0.0034297372965816655     698.1262662914606
0.003631598594156443      697.3272078345498
0.0038331430353414214     696.4884072459578
0.004034528845142556      695.6098645256843
0.004235914622467191      694.6915796737295
0.004437458966299354      693.7335526900935
0.004639320101874085      692.7357835747761
0.004841655511239337      691.6982723277773
0.005043918276497792      690.7540074927961
0.005245706959792293      689.7962568627199
0.0054471789681153834     688.8250204375494
0.00564849245128538       687.8402982172838
0.005849805932728159      686.8420902019237
0.006051277935873691      685.8303963914688
0.00625306661055245       684.805216785919
0.006455329363777148      683.7665513852747
0.0066576887471433525     682.7609636434297
0.0068595736811967985     681.7746687882072
0.007061141707903535      680.8076668196076
0.007262551112883539      679.8599577376305
0.007463960555734714      678.9315415422761
0.007665528695965537      678.0224182335443
0.00786741381892875       677.1325878114353
0.0080697734661485        676.2620502759492
0.008272395437950266      675.4793825541836
0.008474540847339949      674.7203921773591
0.008676367906616744      673.9850791454754
0.008878035577337231      673.2734434585326
0.009079703197965442      672.5854851165305
0.009281530107084053      671.9212041194695
0.00948367526660416       671.2806004673492
0.009686296889411194      670.6636741601701
0.009888748367913874      670.2683940365004
0.010090724718905934      669.9131091694164
0.010292383720552634      669.5978195589183
0.010493883896490891      669.3225252050062
0.010695384145210549      669.0872261076798
0.010897043365029401      668.8919222669393
0.011099020079070253      668.7366136827847
0.011301472064648224      668.6213003552159
0.011503924099142101      668.6177792901917
0.011705900863193036      668.655598075143
0.011907560133099505      668.7347567100696
0.012109060430962503      668.8552551949715
0.012310560654077738      669.0170935298488
0.012512219699917606      669.2202717147017
0.012714196091111104      669.4647897495297
0.012916647604829811      669.7506476343332
0.013119269382981878      670.1986115394393
0.013321414683399362      670.6796267277598
0.013523241722808088      671.1936931992947
0.013724909467002238      671.7408109540439
0.013926577258472442      672.3209799920076
0.014128404439597363      672.9342003131859
0.014330549975836581      673.5804719175783
0.01453317208336263       674.2597948051852
0.014735531766219815      675.0151579315146
0.014937416940401616      675.7834835830618
0.015138985143475461      676.5647717598265
0.015340394656791169      677.359022461809
0.015541804135826716      678.1662356890092
0.015743372236141022      678.986411441427
0.015945257239325793      679.8195497190625
0.01614761668334845       680.6656505219155
0.01634987940592303       681.6388347148381
0.016551668047823844      682.5981627878191
0.016753140015983766      683.5436347408584
0.0169544534601584        684.4752505739559
0.017155766903708087      685.3930102871119
0.017357238869994664      686.2969138803261
0.017559027508778132      687.1869613535988
0.01776129022699866       688.0631527069297
0.017963625484858744      688.9703859305889
0.018165486461237414      689.8516488185701
0.018367030641941378      690.7069413708731
0.018568416255992027      691.5362635874982
0.018769801906169285      692.3396154684451
0.018971346195167795      693.1169970137139
0.019173207351754082      693.8684082233049
0.019375542861313405      694.5938490972176
0.019577832661189145      695.3455772952905
0.019779648217873542      696.041710744864
0.019981146975907166      696.6822494459382
0.020182487123025287      697.267193398513
0.020383827220813066      697.7965426025884
0.020585325830972126      698.2702970581647
0.020787141141585735      698.6884567652415
0.020989430597769934      699.051021723819
0.021191672662378012      699.5318547714539
0.021393441061935803      699.9454175797385
0.02159489309031221       700.2917101486731
0.021796186783028852      700.5707324782574
0.021997480548535182      700.7824845684913
0.022198932795108938      700.9269664193752
0.022400701557758636      701.0041780309089
0.02260294412950465       701.0141194030921
0.02280539620920995       701.0767867254418
0.023007373018156245      701.0697075983484
0.02320903233274668       700.9928820218119
0.023410532675187733      700.846309995832
0.023612032942881025      700.629991520409
0.023813692033404853      700.3439265955428
0.024015668469493705      699.9881152212333
0.024218120028423832      699.5625573974809
0.024420742013481003      699.1624443115865
0.02462288751935683       698.7053343062445
0.02482471476325633       698.191227381455
0.02502638271145666       697.6201235372178
0.025228050706933344      696.9920227735331
0.025429878092549915      696.3069250904008
0.025632023834248962      695.5648304878209
0.025834646148682177      694.7657389657933
0.026037006051731277      693.965594227184
0.026238891444565628      693.1224943194313
0.02644045986526205       692.2364392425352
0.026641869595683754      691.3074289964957
0.02684327929182417       690.3354635813128
0.027044847609757647      689.3205429969864
0.02724673283158932       688.2626672435167
0.027449092495796006      687.1618363209036
0.02765135518998453       686.0958827399683
0.027853143803698084      685.020220087873
0.028054615743803996      683.9348483646178
0.028255929159991804      682.8397675702028
0.028457242575555555      681.7349777046279
0.028658714513790734      680.6204787678929
0.028860503124391312      679.4962707599982
0.029062765814231884      678.3623536809434
0.029265100752448706      677.2356680429223
0.02946696141141544       676.1357917924454
0.029668505276199596      675.062724929513
0.029869890575077548      674.0164674541248
0.03007127591008127       672.997019366281
0.030272819883157453      672.0043806659817
0.03047468072232762       671.0385513532264
0.030677015912237836      670.0995314280156
0.030879305594778746      669.2434201551082
0.03108112103494649       668.4260311162892
0.031282619677010744      667.6473643115585
0.03148395970843373       666.9074197409161
0.0316852996905265        666.206197404362
0.031886798184716555      665.5436973018961
0.032088613378814135      664.9199194335188
0.03229090271766436       664.3348637992295
0.03249314477533616       663.9495839409302
0.03269491316800606       663.6211207253926
0.03289636518952694       663.3494741526173
0.03309765887540427       663.1346442226036
0.033298952634071295      662.976630935352
0.033500404873789524      662.875434290862
0.03370217362955133       662.8310542891343
0.03390441619436107       662.8434909301682
0.03410686840969767       662.9689161475213
0.03430884535332711       663.1515356884288
0.0345105048019665        663.3913495528906
0.034712005278138794      663.6883577409068
0.03491350567956333       664.0425602524774
0.03511516490413611       664.4539570876021
0.035317141474908095      664.9225482462814
0.03551959316946952       665.4483337285149
0.035722216260139425      666.1280327758492
0.03592436286389621       666.8513469192588
0.036126191200505704      667.6182761587437
0.03632786023882611       668.4288204943037
0.03652952932442421       669.2829799259392
0.036731357802754806      670.1807544536498
0.03693350464234149       671.1221440774358
0.03713612806239678       672.1071487972969
0.03733848789969145       673.1595984821024
0.037540373227224554      674.2328135915521
0.03774194158292153       675.326794125646
0.03794335124849304       676.4415400843839
0.03814476087977932       677.577051467766
0.03834632913270157       678.7333282757924
0.03854821428921239       679.9103705084627
0.038750573887637245      681.1081781657773
0.03895283596123875       682.3796693409716
0.039154623958694366      683.6361227197966
0.039356095285438375      684.877538302252
0.03955740808971597       686.1039160883379
0.03975872089337115       687.3152560780544
0.03996019221824938       688.5115582714012
0.04016198021260023       689.6928226683789
0.04036424228186526       690.8590492689866
0.040566577948397485      692.0114191351013
0.040768439330593605      693.1261758529431
0.04096998391520435       694.2033194225124
0.04117136993220262       695.242849843809
0.04137275598532357       696.2447671168331
0.04157430067821714       697.2090712415842
0.04177616224060133       698.1357622180628
0.0419784981588055        699.0248400462689
0.04218078754816035       699.9002194416094
0.04238260269718259       700.7078915289154
0.04258410104946696       701.4478563081869
0.04278544079179545       702.1201137794238
0.04298678048479618       702.7246639426262
0.043188278689213704      703.2615067977941
0.043390093592177985      703.7306423449277
0.04359238263785921       704.1320705840265
0.043794623705544454      704.5954725982905
0.04399639111513442       704.9853654951363
0.04419784215819482       705.3017492745639
0.04439913486792596       705.5446239365734
0.044600427650446826      705.7139894811646
0.04480187891170468       705.8098459083376
0.045003646684386715      705.8321932180925
0.04520588825921017       705.7810314104291
