% Model:              brazing.mph
% Version:            COMSOL 5.3.0.223
% Date:               Oct 24 2018, 04:48
% Dimension:          1
% Nodes:              225
% Expressions:        1
% Description:        Line graph
% x                       Height
0                         680.3131916169025
2.02242572596226E-4       680.3030325355322
4.040113375593453E-4      680.2303686575532
6.054635867748898E-4      680.0951999829654
8.067573541103817E-4      679.8975265117687
0.0010080510467017985     679.6373482439632
0.001209503071861434      679.3146651795489
0.0014112714639836859     678.9294773185258
0.001613513515825394      678.4817846608938
0.001815803045808458      678.0812572741871
0.0020176184164428694     677.6346781622366
0.0022191170764546647     677.1420473250424
0.0024204572175778446     676.6033647626045
0.00262179740518867       676.0186304749229
0.002823296204553664      675.3878444619977
0.0030251118070788686     674.7110067238286
0.003227401660948015      673.9881172604158
0.0034297372965816655     673.2861666074614
0.003631598594156443      672.5477110537566
0.0038331430353414214     671.7727505993018
0.004034528845142556      670.9612852440968
0.004235914622467191      670.1133149881415
0.004437458966299354      669.228839831436
0.004639320101874085      668.3078597739801
0.004841655511239337      667.3503748157743
0.005043918276497792      666.4759680618891
0.005245706959792293      665.5895815106907
0.0054471789681153834     664.6912151621788
0.00564849245128538       663.7808690163536
0.005849805932728159      662.8585430732148
0.006051277935873691      661.924237332763
0.00625306661055245       660.9779517949978
0.006455329363777148      660.0196864599192
0.0066576887471433525     659.0908980463697
0.0068595736811967985     658.1803035938236
0.007061141707903535      657.287903102281
0.007262551112883539      656.4136965717418
0.007463960555734714      655.557684002206
0.007665528695965537      654.7198653936737
0.00786741381892875       653.9002407461447
0.0080697734661485        653.0988100596194
0.008272395437950266      652.3773823175936
0.008474540847339949      651.6784872738564
0.008676367906616744      651.0021249284076
0.008878035577337231      650.3482952812475
0.009079703197965442      649.7169983323759
0.009281530107084053      649.1082340817927
0.00948367526660416       648.5220025294981
0.009686296889411194      647.9583036754921
0.009888748367913874      647.5974343875293
0.010090724718905934      647.2741882862233
0.010292383720552634      646.9885653715737
0.010493883896490891      646.7405656435807
0.010695384145210549      646.5301891022442
0.010897043365029401      646.3574357475644
0.011099020079070253      646.222305579541
0.011301472064648224      646.1247985981742
0.011503924099142101      646.1290194925949
0.011705900863193036      646.1720183369375
0.011907560133099505      646.2537951312016
0.012109060430962503      646.3743498753877
0.012310560654077738      646.5336825694953
0.012512219699917606      646.7317932135247
0.012714196091111104      646.968681807476
0.012916647604829811      647.2443483513488
0.013119269382981878      647.6687846741935
0.013321414683399362      648.1241159460279
0.013523241722808088      648.610342166852
0.013724909467002238      649.1274633366656
0.013926577258472442      649.6754794554689
0.014128404439597363      650.2543905232618
0.014330549975836581      650.8641965400444
0.01453317208336263       651.5048975058166
0.014735531766219815      652.21425102607
0.014937416940401616      652.9359502950218
0.015138985143475461      653.6699953126722
0.015340394656791169      654.416386079021
0.015541804135826716      655.1751225940684
0.015743372236141022      655.9462048578143
0.015945257239325793      656.7296328702588
0.01614761668334845       657.5254066314018
0.01634987940592303       658.4357336085811
0.016551668047823844      659.3333815522228
0.016753140015983766      660.2183504623267
0.0169544534601584        661.0906403388929
0.017155766903708087      661.9502511819213
0.017357238869994664      662.797182991412
0.017559027508778132      663.631435767365
0.01776129022699866       664.4530095097801
0.017963625484858744      665.3017420596505
0.018165486461237414      666.1261613141329
0.018367030641941378      666.9262672732273
0.018568416255992027      667.7020599369339
0.018769801906169285      668.4535393052524
0.018971346195167795      669.1807053781831
0.019173207351754082      669.883558155726
0.019375542861313405      670.5620976378807
0.019577832661189145      671.2610286617734
0.019779648217873542      671.9085100496862
0.019981146975907166      672.5045418016194
0.020182487123025287      673.0491239175731
0.020383827220813066      673.5422563975469
0.020585325830972126      673.9839392415412
0.020787141141585735      674.3741724495558
0.020989430597769934      674.7129560215906
0.021191672662378012      675.1556285675572
0.021393441061935803      675.5356208098545
0.02159489309031221       675.8529327484829
0.021796186783028852      676.1075643834417
0.021997480548535182      676.2995157147313
0.022198932795108938      676.4287867423519
0.022400701557758636      676.4953774663029
0.02260294412950465       676.499287886585
0.02280539620920995       676.5490620389024
0.023007373018156245      676.533872995488
0.02320903233274668       676.4537207563412
0.023410532675187733      676.3086053214626
0.023612032942881025      676.0985266908518
0.023813692033404853      675.8234848645089
0.024015668469493705      675.4834798424339
0.024218120028423832      675.078511624627
0.024420742013481003      674.6958542660035
0.02462288751935683       674.2601381395035
0.02482471476325633       673.7713632451273
0.02502638271145666       673.2295295828748
0.025228050706933344      672.6346371527458
0.025429878092549915      671.9866859547408
0.025632023834248962      671.2856759888592
0.025834646148682177      670.5316072551014
0.026037006051731277      669.7747545733556
0.026238891444565628      668.9780968567476
0.02644045986526205       668.1416341052774
0.026641869595683754      667.2653663189449
0.02684327929182417       666.3492934977502
0.027044847609757647      665.3934156416934
0.02724673283158932       664.3977327507743
0.027449092495796006      663.362244824993
0.02765135518998453       662.356144881025
0.027853143803698084      661.3413702734882
0.028054615743803996      660.3179210023827
0.028255929159991804      659.2857970677084
0.028457242575555555      658.2449984694654
0.028658714513790734      657.1955252076535
0.028860503124391312      656.1373772822731
0.029062765814231884      655.0705546933237
0.029265100752448706      654.0097417718985
0.02946696141141544       652.974031505764
0.029668505276199596      651.9634238949201
0.029869890575077548      650.9779189393671
0.03007127591008127       650.0175166391049
0.030272819883157453      649.0822169941333
0.03047468072232762       648.1720200044525
0.030677015912237836      647.2869256700626
0.030879305594778746      646.4778277137574
0.03108112103494649       645.7050953872033
0.031282619677010744      644.9687286904001
0.03148395970843373       644.2687276233479
0.0316852996905265        643.6050921860467
0.031886798184716555      642.9778223784966
0.032088613378814135      642.3869182006973
0.03229090271766436       641.8323796526491
0.03249314477533616       641.4630078714728
0.03269491316800606       641.1469421947439
0.03289636518952694       640.8841826224625
0.03309765887540427       640.6747291546287
0.033298952634071295      640.5185817912424
0.033500404873789524      640.4157405323036
0.03370217362955133       640.3662053778124
0.03390441619436107       640.3699763277688
0.03410686840969767       640.4775296805841
0.03430884535332711       640.6387204887225
0.0345105048019665        640.8535487521841
0.034712005278138794      641.1220144709691
0.03491350567956333       641.4441176450772
0.03511516490413611       641.8198582745086
0.035317141474908095      642.2492363592634
0.03551959316946952       642.732251899341
0.035722216260139425      643.3584086626386
0.03592436286389621       644.0255657190323
0.036126191200505704      644.7337230685221
0.03632786023882611       645.482880711108
0.03652952932442421       646.27303864679
0.036731357802754806      647.104196875568
0.03693350464234149       647.9763553974423
0.03713612806239678       648.8895142124127
0.03733848789969145       649.8644650258019
0.037540373227224554      650.8592442461877
0.03774194158292153       651.87385187357
0.03794335124849304       652.9082879079486
0.03814476087977932       653.9625523493238
0.03834632913270157       655.0366451976955
0.03854821428921239       656.1305664530637
0.038750573887637245      657.2443161154283
0.03895283596123875       658.4255851307635
0.039154623958694366      659.5934031863765
0.039356095285438375      660.747770282267
0.03955740808971597       661.8886864184353
0.03975872089337115       663.0161515948813
0.03996019221824938       664.1301658116051
0.04016198021260023       665.2307290686068
0.04036424228186526       666.317841365886
0.040566577948397485      667.3918154665336
0.040768439330593605      668.4312226859752
0.04096998391520435       669.4360630242106
0.04117136993220262       670.4063364812403
0.04137275598532357       671.3420430570637
0.04157430067821714       672.2431827516815
0.04177616224060133       673.1097555650932
0.0419784981588055        673.9417614972989
0.04218078754816035       674.758558182503
0.04238260269718259       675.5131345614997
0.04258410104946696       676.2054906342889
0.04278544079179545       676.8356264008706
0.04298678048479618       677.403541861245
0.043188278689213704      677.9092370154118
0.043390093592177985      678.352711863371
0.04359238263785921       678.7339664051232
0.043794623705544454      679.1697487124725
0.04399639111513442       679.5374226895714
0.04419784215819482       679.8369883364196
0.04439913486792596       680.0684456530173
0.044600427650446826      680.2317946393644
0.04480187891170468       680.3270352954611
0.045003646684386715      680.3541676213069
0.04520588825921017       680.3131916169025
