% Model:              brazing.mph
% Version:            COMSOL 5.3.0.223
% Date:               Oct 24 2018, 05:47
% Dimension:          1
% Nodes:              225
% Expressions:        1
% Description:        Line graph
% x                       Height
0                         686.1910814763763
2.1191841480136804E-4     686.0906155373357
4.2353438892247565E-4     685.9485539645888
6.349689892252786E-4      685.7648967581356
8.463435942227858E-4      685.5396439179763
0.001057779685752053      685.272795444111
0.001269398639759412      684.9643513365392
0.001481321517995422      684.6143115952614
0.0017252358262731596     684.1489919430453
0.0019686866163640313     683.6498275752057
0.0022118589563155885     683.1168184917424
0.002454938550168189      682.5499646926552
0.0026981113144448556     681.9492661779447
0.0029415629522145732     681.31472294761
0.0031854785295931678     680.6463350016518
0.0034450106912723537     679.8291840011898
0.0037039863009040125     678.9780619907976
0.003962627412610827      678.0929689704752
0.0042211569424298        677.1739049402224
0.004479798094906585      676.2208699000398
0.004738773785972872      675.2338638499264
0.004998306069542035      674.212886789883
0.005274868491808245      673.0231767189913
0.005550758931995686      671.8148938305932
0.0058262454501036105     670.588038124688
0.006101597285810183      669.3426096012762
0.006377084073678616      668.0786082603579
0.006652975052596927      666.7960341019326
0.006929538280995558      665.4948871260008
0.007206101510950518      664.1487210367161
0.007481992491406557      662.8203176685039
0.007757479280801014      661.5096770213642
0.00803283111802884       660.2167990952967
0.008308317637660222      658.9416838903021
0.008584208079380276      657.6843314063793
0.008860770503195153      656.4447416435294
0.009120302815147717      655.282858660231
0.00937927853441616       654.1643346312914
0.009637919714987194      653.0891695567103
0.009896449272866283      652.0573634364879
0.010155090412673047      651.0689162706244
0.010414066050518256      650.1238280591194
0.01067359824059789       649.2220988019732
0.010917512776055054      648.4015198313585
0.011160965100129169      647.6352332351977
0.011404139717480647      646.9232390134905
0.01164722176512739       646.2655371662374
0.011890396591516505      645.6621276934385
0.012133849333188814      645.1130105950931
0.012377764493855997      644.6181858712017
0.01258968694000722       644.2330913049899
0.012801305803204788      643.8915210621998
0.013012742322906452      643.5934751428314
0.013224118052332232      643.3389535468846
0.01343555464954572       643.1279562743598
0.013647173667633327      642.9604833252562
0.013859096345786744      642.8365346995746
0.014071014760598048      642.7726529720852
0.014282630734729056      642.7515206615631
0.01449406533504172       642.7731377680078
0.014705439940049088      642.8375042914198
0.014916876031588231      642.9446202317994
0.015128494985605482      643.0944855891455
0.015340417863851432      643.2871003634591
0.01558433217214941       643.5296259325684
0.015827782962260412      643.8342850351113
0.016070955302232025      644.2010776710878
0.016314034896104664      644.6300038404977
0.0165572076604014        645.1210635433415
0.01680065929819124       645.6742567796184
0.01704457487559009       646.2895835493292
0.01730410703726679       646.963833006386
0.017563082646895985      647.6812080716779
0.01782172375860034       648.4417087452042
0.018080253288416847      649.2453350269656
0.01833889444089119       650.0920869169621
0.018597870131955005      650.9819644151929
0.018857402415521692      651.9149675216589
0.019133964837753384      652.9186620551075
0.019409855277906563      653.94235559779
0.019685341795980367      654.9860481497064
0.019960693631652874      656.0497397108566
0.0202361804194872        657.1334302812411
0.020512071398371242      658.237119860859
0.020788634626735362      659.3608084497112
0.02106519785666259       660.4581012592413
0.021341088837091095      661.543463252152
0.021616575626458134      662.6168944284434
0.02189192746365859       663.6783947881153
0.022167413983262562      664.727964331168
0.02244330442495508       665.7656030576009
0.022719866848742224      666.7913109674146
0.022979399160698737      667.6562505892541
0.023238374879971102      668.4983698067686
0.023497016060546046      669.3176686199577
0.023755545618429033      670.1141470288214
0.02401418675823971       670.8878050333602
0.024273162396088833      671.6386426335735
0.024532694586172417      672.3666598294616
0.02477660912165014       672.9733372075956
0.02502006144574469       673.5458359776885
0.025263236063116538      674.0841561397402
0.025506318110783622      674.5882976937511
0.025749492937193107      675.0582606397213
0.02599294567888585       675.4940449776501
0.026236860839573585      675.8956507075382
0.026448783285734738      676.1890586384219
0.02666040214894219       676.4626269051313
0.026871838668653707      676.7163555076663
0.027083214398089334      676.9502444460271
0.027294650995312687      677.164293720214
0.027506270013410168      677.3585033302261
0.02771819269157351       677.5328732760642
0.02793011110637494       677.6174990106373
0.028141727080496122      677.6805546174688
0.028353161680798985      677.7220400965582
0.028564536285796558      677.7419554479058
0.028775972377325904      677.7403006715118
0.028987591331333325      677.7170757673757
0.029199514209569403      677.6722807354979
0.02944342851784522       677.4856873555196
0.02968687930793418       677.254977232448
0.02993005164788383       676.9801503662827
0.030173131241734534      676.6612067570243
0.0304163040060093        676.2981464046727
0.0306597556437771        675.8909693092273
0.030903671221153783      675.4396754706887
0.031163203382828072      674.797450535716
0.03142217899245488       674.1085551948158
0.03168082010415685       673.3729894479882
0.03193934963397098       672.5907532952331
0.032197990786442934      671.7618467365508
0.03245696647750436       670.8862697719406
0.032716498761068635      669.9640224014032
0.03299306118333142       668.8018370077174
0.03326895162351545       667.6181809504005
0.03354443814161999       666.4130542294523
0.03381978997732317       665.1864568448731
0.034095276765188226      663.9383887966629
0.03437116774410313       662.6688500848213
0.03464773097249833       661.3778407093487
0.034924294202460265      660.0124035916945
0.03520018518292322       658.6680040239542
0.03547567197232456       657.3446420061275
0.035751023809559274      656.0423175382148
0.036026510329197556      654.7610306202163
0.036302400770924524      653.500781252131
0.03657896319474637       652.2615694339598
0.036838495506703706      651.097918067465
0.03709747122597688       649.9892648716838
0.037356112406552636      648.9356098466159
0.03761464196443644       647.9369529922616
0.03787328310424792       646.993294308621
0.03813225874209787       646.1046337956936
0.03839179093218227       645.2709714534799
0.03863570546763781       644.5186893356781
0.038879157791710306      643.833705464136
0.03912233240906017       643.2160198388533
0.03936541445670531       642.6656324598301
0.039608589283092806      642.1825433270668
0.039852042024763494      641.7667524405626
0.04009595718542905       641.4182598003182
0.040307879631580334      641.1529079117871
0.04051949849477797       640.9414830329856
0.0407309350144797        640.7839851639135
0.040942310743905544      640.6804143045711
0.04115374734111909       640.6307704549583
0.04136536635920676       640.6350536150748
0.04157728903736024       640.693263784921
0.04178920745215007       640.8116060004378
0.042000823426259694      640.9822263822138
0.042212258026551035      641.2051249302484
0.04242363263153709       641.480301644542
0.0426350687230549        641.8077565250949
0.042846687677050764      642.1874895719061
0.04305861055527523       642.6195007849766
0.04330252486354604       643.1463471996879
0.043545975653630026      643.7436492578959
0.04378914799357473       644.4114069595997
0.044032227587420474      645.1496203048
0.04427540035169028       645.9582892934972
0.04451885198945311       646.83741392569
0.044762767566824783      647.7869942013796
0.045022299728516735      648.8298500331881
0.04528127533816108       649.9213139669718
0.045539916449880535      651.0613860027304
0.045798445979712124      652.2500661404642
0.046057087132201545      653.4873543801735
0.04631606282328052       654.7732507218577
0.046575595106862454      656.1077551655172
0.04685215752913061       657.529176783878
0.04712804796931999       658.97416343348
0.04740353448742985       660.4427151143224
0.04767888632313835       661.9348318264056
0.04795437311100872       663.4505135697298
0.048230264089928976      664.9897603442944
0.048506827318329566      666.5525721500999
0.04878339054829114       668.0328180225667
0.049059281528753745      669.4909421029848
0.04933476831815475       670.9269443913539
0.0496101201553891        672.3408248876742
0.04988560667502701       673.7325835919461
0.05016149711675364       675.1022205041687
0.050438059540575134      676.4497356243428
0.05069759185254397       677.5390381233808
0.05095656757182859       678.5789781845059
0.05121520875241573       679.5695558077178
0.05147373831031092       680.5107709930166
0.051732379450133786      681.4026237404026
0.05199135508799517       682.2451140498753
0.05225088727809108       683.038241921435
0.0524948018135407        683.6602666948654
0.052738254137607306      684.2204741020004
0.05298142875495131       684.7188641428398
0.05322451080259058       685.1554368173839
0.0534676856289722        685.5301921256328
0.05371113837063701       685.8431300675858
0.05395505353129665       686.0942506432435
0.05416697597743634       686.2423440752947
0.054378594840622414      686.3456840220492
0.05459003136031263       686.4042704835075
0.05480140708972696       686.4181034596693
0.05501284368692898       686.3871829505348
0.0552244627050051        686.3115089561037
0.05543638538314697       686.1910814763763
