% Model:              brazing.mph
% Version:            COMSOL 5.3.0.223
% Date:               Oct 24 2018, 01:43
% Dimension:          1
% Nodes:              225
% Expressions:        1
% Description:        Line graph
% x                       Height
0                         679.9414785446176
2.02242572596226E-4       679.9283564784109
4.040113375593453E-4      679.8514507997141
6.054635867748898E-4      679.7107615085272
8.067573541103817E-4      679.50628860485
0.0010080510467017985     679.2380320886829
0.001209503071861434      678.9059919600252
0.0014112714639836859     678.5101682188778
0.001613513515825394      678.0505608652398
0.001815803045808458      677.6343012501217
0.0020176184164428694     677.1710555926522
0.0022191170764546647     676.6608238928316
0.0024204572175778446     676.1036061506596
0.00262179740518867       675.4994023661365
0.002823296204553664      674.8482125392619
0.0030251118070788686     674.1500366700362
0.003227401660948015      673.4048747584593
0.0034297372965816655     672.6805652928779
0.003631598594156443      671.919084150676
0.0038331430353414214     671.1204313318536
0.004034528845142556      670.2846068364108
0.004235914622467191      669.4116106643474
0.004437458966299354      668.5014428156637
0.004639320101874085      667.5541032903596
0.004841655511239337      666.5695920884349
0.005043918276497792      665.6656287236831
0.005245706959792293      664.7496729609038
0.0054471789681153834     663.8217248000972
0.00564849245128538       662.8817842412631
0.005849805932728159      661.9298512844015
0.006051277935873691      660.9659259295125
0.00625306661055245       659.9900081765961
0.006455329363777148      659.0020980256521
0.0066576887471433525     658.0447650046334
0.0068595736811967985     657.1061116207195
0.007061141707903535      656.1861378739106
0.007262551112883539      655.2848437642066
0.007463960555734714      654.4022292916075
0.007665528695965537      653.5382944561132
0.00786741381892875       652.6930392577242
0.0080697734661485        651.8664636964398
0.008272395437950266      651.120341947601
0.008474540847339949      650.398031675721
0.008676367906616744      649.6995328807999
0.008878035577337231      649.0248455628375
0.009079703197965442      648.373969721834
0.009281530107084053      647.7469053577894
0.00948367526660416       647.1436524707035
0.009686296889411194      646.5642110605764
0.009888748367913874      646.1870477656404
0.010090724718905934      645.8490480506548
0.010292383720552634      645.5502119156198
0.010493883896490891      645.2905393605353
0.010695384145210549      645.0700303854013
0.010897043365029401      644.8886849902177
0.011099020079070253      644.7465031749847
0.011301472064648224      644.6434849397021
0.011503924099142101      644.6437648810312
0.011705900863193036      644.684377303714
0.011907560133099505      644.7653222077507
0.012109060430962503      644.8865995931411
0.012310560654077738      645.0482094598854
0.012512219699917606      645.2501518079836
0.012714196091111104      645.4924266374355
0.012916647604829811      645.7750339482413
0.013119269382981878      646.2065209031717
0.013321414683399362      646.6701738894978
0.013523241722808088      647.1659929072198
0.013724909467002238      647.6939779563374
0.013926577258472442      648.2541290368509
0.014128404439597363      648.8464461487602
0.014330549975836581      649.4709292920654
0.01453317208336263       650.1275784667663
0.014735531766219815      650.853866983513
0.014937416940401616      651.593336649385
0.015138985143475461      652.3459874643826
0.015340394656791169      653.1118194285054
0.015541804135826716      653.8908325417538
0.015743372236141022      654.6830268041275
0.015945257239325793      655.4884022156266
0.01614761668334845       656.3069587762511
0.01634987940592303       657.2385195864053
0.016551668047823844      658.1574720519255
0.016753140015983766      659.0638161728117
0.0169544534601584        659.9575519490638
0.017155766903708087      660.8386793806818
0.017357238869994664      661.7071984676658
0.017559027508778132      662.5631092100157
0.01776129022699866       663.4064116077316
0.017963625484858744      664.2781378131167
0.018165486461237414      665.1249332007054
0.018367030641941378      665.9467977704978
0.018568416255992027      666.7437315224937
0.018769801906169285      667.5157344566932
0.018971346195167795      668.2628065730963
0.019173207351754082      668.9849478717032
0.019375542861313405      669.6821583525135
0.019577832661189145      670.3998471116803
0.019779648217873542      671.0653446213263
0.019981146975907166      671.6786508814512
0.020182487123025287      672.2397658920554
0.020383827220813066      672.7486896531386
0.020585325830972126      673.205422164701
0.020787141141585735      673.6099634267425
0.020989430597769934      673.9623134392633
0.021191672662378012      674.4154562649027
0.021393441061935803      674.8048072648052
0.02159489309031221       675.1303664389706
0.021796186783028852      675.392133787399
0.021997480548535182      675.5901093100904
0.022198932795108938      675.7242930070448
0.022400701557758636      675.7946848782622
0.02260294412950465       675.8012849237426
0.02280539620920995       675.8540489068356
0.023007373018156245      675.8406402692613
0.02320903233274668       675.7610590110199
0.023410532675187733      675.6153051321113
0.023612032942881025      675.4033786325356
0.023813692033404853      675.1252795122925
0.024015668469493705      674.7810077713825
0.024218120028423832      674.3705634098052
0.024420742013481003      673.97778905134
0.02462288751935683       673.5309326890798
0.02482471476325633       673.0299943230247
0.02502638271145666       672.4749739531744
0.025228050706933344      671.8658715795291
0.025429878092549915      671.2026872020889
0.025632023834248962      670.4854208208535
0.025834646148682177      669.7140724358233
0.026037006051731277      668.9388499154988
0.026238891444565628      668.1230979275559
0.02644045986526205       667.2668164719945
0.026641869595683754      666.3700055488147
0.02684327929182417       665.4326651580163
0.027044847609757647      664.4547952995994
0.02724673283158932       663.436395973564
0.027449092495796006      662.3774671799099
0.02765135518998453       661.34478952592
0.027853143803698084      660.3035120728063
0.028054615743803996      659.2536348205689
0.028255929159991804      658.1951577692076
0.028457242575555555      657.1280809187226
0.028658714513790734      656.0524042691138
0.028860503124391312      654.9681278203813
0.029062765814231884      653.8752515725249
0.029265100752448706      652.7889165905159
0.02946696141141544       651.7284041646717
0.029668505276199596      650.6937142949921
0.029869890575077548      649.6848469814774
0.03007127591008127       648.7018022241275
0.030272819883157453      647.7445800229423
0.03047468072232762       646.8131803779216
0.030677015912237836      645.907603289066
0.030879305594778746      645.0781342574987
0.03108112103494649       644.2867371659369
0.031282619677010744      643.5334120143805
0.03148395970843373       642.8181588028292
0.0316852996905265        642.1409775312833
0.031886798184716555      641.5018681997427
0.032088613378814135      640.9008308082075
0.03229090271766436       640.3378653566776
0.03249314477533616       639.9582516310945
0.03269491316800606       639.6339064842093
0.03289636518952694       639.3648299160224
0.03309765887540427       639.1510219265335
0.033298952634071295      638.9924825157427
0.033500404873789524      638.8892116836502
0.03370217362955133       638.8412094302555
0.03390441619436107       638.848475755559
0.03410686840969767       638.9608501932867
0.03430884535332711       639.1288057967228
0.0345105048019665        639.3523425658672
0.034712005278138794      639.63146050072
0.03491350567956333       639.9661596012812
0.03511516490413611       640.3564398675506
0.035317141474908095      640.8023012995288
0.03551959316946952       641.3037438972152
0.035722216260139425      641.9476488078587
0.03592436286389621       642.634042705709
0.036126191200505704      643.3629255907665
0.03632786023882611       644.1342974630307
0.03652952932442421       644.948158322502
0.036731357802754806      645.8045081691802
0.03693350464234149       646.7033470030652
0.03713612806239678       647.6446748241573
0.03733848789969145       648.6480828519424
0.037540373227224554      649.6721331219721
0.03774194158292153       650.7168256342468
0.03794335124849304       651.7821603887662
0.03814476087977932       652.8681373855304
0.03834632913270157       653.9747566245393
0.03854821428921239       655.1020181057929
0.038750573887637245      656.2499218292913
0.03895283596123875       657.4630219017639
0.039154623958694366      658.6625399367974
0.039356095285438375      659.8484759343919
0.03955740808971597       661.0208298945473
0.03975872089337115       662.1796018172638
0.03996019221824938       663.3247917025412
0.04016198021260023       664.4563995503794
0.04036424228186526       665.5744253607787
0.040566577948397485      666.6790419988645
0.040768439330593605      667.7480132360466
0.04096998391520435       668.7813390723254
0.04117136993220262       669.7790195077006
0.04137275598532357       670.7410545421723
0.04157430067821714       671.6674441757406
0.04177616224060133       672.5581884084053
0.0419784981588055        673.4132872401664
0.04218078754816035       674.251377169013
0.04238260269718259       675.0260349441611
0.04258410104946696       675.7372605656104
0.04278544079179545       676.3850540333611
0.04298678048479618       676.969415347413
0.043188278689213704      677.4903445077664
0.043390093592177985      677.9478415144209
0.04359238263785921       678.341906367377
0.043794623705544454      678.7851488082379
0.04399639111513442       679.1588781294686
0.04419784215819482       679.463094331069
0.04439913486792596       679.6977974130392
0.044600427650446826      679.8629873753791
0.04480187891170468       679.958664218089
0.045003646684386715      679.9848279411683
0.04520588825921017       679.9414785446176
