% Model:              brazing.mph
% Version:            COMSOL 5.3.0.223
% Date:               Oct 24 2018, 03:28
% Dimension:          1
% Nodes:              225
% Expressions:        1
% Description:        Line graph
% x                       Height
0                         687.0891984175113
2.1191841480136804E-4     686.9789433191794
4.2353438892247565E-4     686.8253313480903
6.349689892252786E-4      686.6283625042441
8.463435942227858E-4      686.3880367876408
0.001057779685752053      686.1043541982806
0.001269398639759412      685.7773147361629
0.001481321517995422      685.4069184012883
0.0017252358262731596     684.9159645481573
0.0019686866163640313     684.3896690572051
0.0022118589563155885     683.8280319284315
0.002454938550168189      683.2310531618369
0.0026981113144448556     682.5987327574215
0.0029415629522145732     681.9310707151844
0.0031854785295931678     681.2280670351264
0.0034450106912723537     680.3703514160424
0.0037039863009040125     679.4774669984728
0.003962627412610827      678.5494137824173
0.0042211569424298        677.5861917678761
0.004479798094906585      676.5878009548495
0.004738773785972872      675.5542413433368
0.004998306069542035      674.4855129333386
0.005274868491808245      673.240751253955
0.005550758931995686      671.976914372642
0.0058262454501036105     670.6940022893994
0.006101597285810183      669.3920150042273
0.006377084073678616      668.0709525171263
0.006652975052596927      666.7308148280954
0.006929538280995558      665.3716019371353
0.007206101510950518      663.9653864338912
0.007481992491406557      662.5778619558835
0.007757479280801014      661.2090285031115
0.00803283111802884       659.8588860755759
0.008308317637660222      658.5274346732768
0.008584208079380276      657.2146742962136
0.008860770503195153      655.9206049443867
0.009120302815147717      654.7081037319043
0.00937927853441616       653.5409687540249
0.009637919714987194      652.4192000107486
0.009896449272866283      651.3427975020752
0.010155090412673047      650.3117612280053
0.010414066050518256      649.326091188538
0.01067359824059789       648.385787383674
0.010917512776055054      647.5307524370639
0.011160965100129169      646.7325013730284
0.011404139717480647      645.9910341915675
0.01164722176512739       645.3063508926808
0.011890396591516505      644.6784514763692
0.012133849333188814      644.1073359426316
0.012377764493855997      643.5930042914688
0.01258968694000722       643.1932232048454
0.012801305803204788      642.8389854844222
0.013012742322906452      642.5302911301994
0.013224118052332232      642.2671401421768
0.01343555464954572       642.0495325203547
0.013647173667633327      641.8774682647324
0.013859096345786744      641.7509473753107
0.014071014760598048      641.6871359196849
0.014282630734729056      641.66810358429
0.01449406533504172       641.6938503691257
0.014705439940049088      641.7643762741922
0.014916876031588231      641.8796812994898
0.015128494985605482      642.0397654450177
0.015340417863851432      642.2446287107766
0.01558433217214941       642.5033392913452
0.015827782962260412      642.8267050245344
0.016070955302232025      643.2147259103438
0.016314034896104664      643.6674019487737
0.0165572076604014        644.1847331398244
0.01680065929819124       644.7667194834951
0.01704457487559009       645.4133609797865
0.01730410703726679       646.1226779918888
0.017563082646895985      646.8770989160246
0.01782172375860034       647.6766237521934
0.018080253288416847      648.5212525003955
0.01833889444089119       649.4109851606311
0.018597870131955005      650.3458217328995
0.018857402415521692      651.3257622172014
0.019133964837753384      652.3796531168874
0.019409855277906563      653.4545511014635
0.019685341795980367      654.5504561709291
0.019960693631652874      655.6673683252848
0.0202361804194872        656.8052875645305
0.020512071398371242      657.9642138886659
0.020788634626735362      659.1441472976912
0.02106519785666259       660.2949526649774
0.021341088837091095      661.4335326279136
0.021616575626458134      662.5598871864995
0.02189192746365859       663.6740163407355
0.022167413983262562      664.7759200906216
0.02244330442495508       665.8655984361574
0.022719866848742224      666.9430513773433
0.022979399160698737      667.852028930443
0.023238374879971102      668.7374534138625
0.023497016060546046      669.5993248276014
0.023755545618429033      670.43764317166
0.02401418675823971       671.2524084460387
0.024273162396088833      672.0436206507366
0.024532694586172417      672.8112797857543
0.02477660912165014       673.4509942571569
0.02502006144574469       674.0551698776637
0.025263236063116538      674.6238066472743
0.025506318110783622      675.1569045659891
0.025749492937193107      675.6544636338081
0.02599294567888585       676.116483850731
0.026236860839573585      676.5429652167581
0.026448783285734738      676.8554242425826
0.02666040214894219       677.1470174216856
0.026871838668653707      677.4177447540673
0.027083214398089334      677.6676062397272
0.027294650995312687      677.896601878666
0.027506270013410168      678.104731670883
0.02771819269157351       678.2919956163787
0.02793011110637494       678.3859257374774
0.028141727080496122      678.4570560268995
0.028353161680798985      678.5053864846445
0.028564536285796558      678.5309171107128
0.028775972377325904      678.5336479051045
0.028987591331333325      678.5135788678191
0.029199514209569403      678.470709998857
0.02944342851784522       678.2813041328047
0.02968687930793418       678.0454139338117
0.02993005164788383       677.7630394018777
0.030173131241734534      677.434180537003
0.0304163040060093        677.0588373391879
0.0306597556437771        676.6370098084315
0.030903671221153783      676.1686979447346
0.031163203382828072      675.5019565834255
0.03142217899245488       674.7863349856245
0.03168082010415685       674.0218331513316
0.03193934963397098       673.208451080547
0.032197990786442934      672.3461887732709
0.03245696647750436       671.4350462295025
0.032716498761068635      670.4750234492426
0.03299306118333142       669.2644338726582
0.03326895162351545       668.0312430486457
0.03354443814161999       666.7754509772051
0.03381978997732317       665.4970576583364
0.034095276765188226      664.1960630920399
0.03437116774410313       662.8724672783151
0.03464773097249833       661.5262702171623
0.034924294202460265      660.100375071696
0.03520018518292322       658.6962562438786
0.03547567197232456       657.3139137337097
0.035751023809559274      655.9533475411897
0.036026510329197556      654.6145576663188
0.036302400770924524      653.2975441090963
0.03657896319474637       652.0023068695228
0.036838495506703706      650.7854936501649
0.03709747122597688       649.625825352971
0.037356112406552636      648.5233019779413
0.03761464196443644       647.4779235250759
0.03787328310424792       646.489689994375
0.03813225874209787       645.5586013858378
0.03839179093218227       644.6846576994652
0.03863570546763781       643.8962862998244
0.038879157791710306      643.1779920872647
0.03912233240906017       642.5297750617862
0.03936541445670531       641.9516352233887
0.039608589283092806      641.4435725720728
0.039852042024763494      641.0055871078374
0.04009595718542905       640.6376788306835
0.040307879631580334      640.3575017323374
0.04051949849477797       640.1336023017806
0.0407309350144797        639.965980539013
0.040942310743905544      639.8546364440349
0.04115374734111909       639.7995700168464
0.04136536635920676       639.8007812574467
0.04157728903736024       639.8582701658368
0.04178920745215007       639.9786267249109
0.042000823426259694      640.1535675726569
0.042212258026551035      640.3830927090745
0.04242363263153709       640.6672021341641
0.0426350687230549        641.0058958479256
0.042846687677050764      641.3991738503587
0.04305861055527523       641.8470361414638
0.04330252486354604       642.394559587251
0.043545975653630026      643.0153594099197
0.04378914799357473       643.7094356094701
0.044032227587420474      644.4767881859021
0.04427540035169028       645.3174171392162
0.04451885198945311       646.2313224694115
0.044762767566824783      647.2185041764885
0.045022299728516735      648.3034487180391
0.04528127533816108       649.4391491089668
0.045539916449880535      650.6256053492713
0.045798445979712124      651.8628174389527
0.046057087132201545      653.1507853780114
0.04631606282328052       654.4895091664466
0.046575595106862454      655.878988804259
0.04685215752913061       657.3583567963432
0.04712804796931999       658.8622775690509
0.04740353448742985       660.3907511223814
0.04767888632313835       661.9437774563352
0.04795437311100872       663.5213565709125
0.048230264089928976      665.1234884661126
0.048506827318329566      666.7501731419361
0.04878339054829114       668.288721328504
0.049059281528753745      669.8041646384137
0.04933476831815475       671.2965030716648
0.0496101201553891        672.7657366282579
0.04988560667502701       674.2118653081928
0.05016149711675364       675.6348891114692
0.050438059540575134      677.0348080380876
0.05069759185254397       678.1657953868707
0.05095656757182859       679.2451822393724
0.05121520875241573       680.2729685955921
0.05147373831031092       681.2491544555304
0.051732379450133786      682.1737398191874
0.05199135508799517       683.0467246865625
0.05225088727809108       683.868109057656
0.0524948018135407        684.5116822348192
0.052738254137607306      685.090770596276
0.05298142875495131       685.6053741420264
0.05322451080259058       686.0554928720705
0.0534676856289722        686.4411267864087
0.05371113837063701       686.7622758850403
0.05395505353129665       687.0189401679658
0.05416697597743634       687.1692649664406
0.054378594840622414      687.2728271296878
0.05459003136031263       687.3296266577074
0.05480140708972696       687.3396635504996
0.05501284368692898       687.3029378080645
0.0552244627050051        687.2194494304016
0.05543638538314697       687.0891984175113
