% Model:              brazing.mph
% Version:            COMSOL 5.3.0.223
% Date:               Oct 24 2018, 04:47
% Dimension:          1
% Nodes:              225
% Expressions:        1
% Description:        Line graph
% x                       Height
0                         742.3679863610777
2.02242572596226E-4       742.3374651188992
4.040113375593453E-4      742.2351465496898
6.054635867748898E-4      742.0610306534495
8.067573541103817E-4      741.8151174301781
0.0010080510467017985     741.4974068798757
0.001209503071861434      741.1078990025427
0.0014112714639836859     740.6465937981783
0.001613513515825394      740.1134912667832
0.001815803045808458      739.6305292949585
0.0020176184164428694     739.0947534419914
0.0022191170764546647     738.5061637078823
0.0024204572175778446     737.8647600926307
0.00262179740518867       737.1705425962369
0.002823296204553664      736.4235112187008
0.0030251118070788686     735.6236659600225
0.003227401660948015      734.771006820202
0.0034297372965816655     733.9465108818117
0.003631598594156443      733.0794989660253
0.0038331430353414214     732.1699710728428
0.004034528845142556      731.2179272022643
0.004235914622467191      730.2233673542896
0.004437458966299354      729.1862915289189
0.004639320101874085      728.1066997261521
0.004841655511239337      726.9845919459891
0.005043918276497792      725.9614077491475
0.005245706959792293      724.9237188632387
0.0054471789681153834     723.8715252882631
0.00564849245128538       722.8048270242205
0.005849805932728159      721.7236240711109
0.006051277935873691      720.6279164289341
0.00625306661055245       719.5177040976905
0.006455329363777148      718.39298707738
0.0066576887471433525     717.3058726710678
0.0068595736811967985     716.2395611509402
0.007061141707903535      715.1940525169971
0.007262551112883539      714.1693467692386
0.007463960555734714      713.1654439076646
0.007665528695965537      712.1823439322752
0.00786741381892875       711.2200468430702
0.0080697734661485        710.2785526400501
0.008272395437950266      709.4314890801018
0.008474540847339949      708.6102287355628
0.008676367906616744      707.8147716064334
0.008878035577337231      707.0451176927136
0.009079703197965442      706.301266994403
0.009281530107084053      705.5832195115022
0.00948367526660416       704.8909752440106
0.009686296889411194      704.2245341919287
0.009888748367913874      703.7941393663804
0.010090724718905934      703.4070220049819
0.010292383720552634      703.0631821077332
0.010493883896490891      702.7626196746342
0.010695384145210549      702.5053347056851
0.010897043365029401      702.2913272008857
0.011099020079070253      702.1205971602362
0.011301472064648224      701.9931445837366
0.011503924099142101      701.9869764996683
0.011705900863193036      702.0255041750783
0.011907560133099505      702.1087276099661
0.012109060430962503      702.236646804332
0.012310560654077738      702.4092617581758
0.012512219699917606      702.6265724714978
0.012714196091111104      702.8885789442978
0.012916647604829811      703.1952811765758
0.013119269382981878      703.6746193696423
0.013321414683399362      704.189793139703
0.013523241722808088      704.7408024867581
0.013724909467002238      705.3276474108072
0.013926577258472442      705.9503279118505
0.014128404439597363      706.6088439898883
0.014330549975836581      707.3031956449202
0.01453317208336263       708.0333828769462
0.014735531766219815      708.8469034205256
0.014937416940401616      709.6744510911695
0.015138985143475461      710.5160258888782
0.015340394656791169      711.3716278136513
0.015541804135826716      712.241256865489
0.015743372236141022      713.1249130443916
0.015945257239325793      714.0225963503585
0.01614761668334845       714.9343067833901
0.01634987940592303       715.9815667294223
0.016551668047823844      717.014001517399
0.016753140015983766      718.0316111473204
0.0169544534601584        719.0343956191862
0.017155766903708087      720.0223549329966
0.017357238869994664      720.9954890887512
0.017559027508778132      721.9537980864508
0.01776129022699866       722.8972819260945
0.017963625484858744      723.8764745038969
0.018165486461237414      724.8279077342041
0.018367030641941378      725.7515816170164
0.018568416255992027      726.6474961523334
0.018769801906169285      727.5156513401553
0.018971346195167795      728.356047180482
0.019173207351754082      729.1686836733136
0.019375542861313405      729.95356081865
0.019577832661189145      730.7692210553188
0.019779648217873542      731.5257274820431
0.019981146975907166      732.2230800988227
0.020182487123025287      732.8612789056577
0.020383827220813066      733.4403239025481
0.020585325830972126      733.960215089494
0.020787141141585735      734.4209524664954
0.020989430597769934      734.8225360335521
0.021191672662378012      735.3478110218293
0.021393441061935803      735.8017456428403
0.02159489309031221       736.1843398965847
0.021796186783028852      736.4955937830628
0.021997480548535182      736.7355073022745
0.022198932795108938      736.9040804542198
0.022400701557758636      737.0013132388985
0.02260294412950465       737.027205656311
0.02280539620920995       737.1117281622577
0.023007373018156245      737.1221525921941
0.02320903233274668       737.05847894612
0.023410532675187733      736.9207072240356
0.023612032942881025      736.7088374259409
0.023813692033404853      736.4228695518356
0.024015668469493705      736.0628036017202
0.024218120028423832      735.6286395755943
0.024420742013481003      735.2153268042166
0.02462288751935683       734.7407097301033
0.02482471476325633       734.2047883532546
0.02502638271145666       733.6075626736701
0.025228050706933344      732.9490326913501
0.025429878092549915      732.2291984062946
0.025632023834248962      731.4480598185035
0.025834646148682177      730.6056169279768
0.026037006051731277      729.7636235601592
0.026238891444565628      728.8754572149408
0.02644045986526205       727.9411178923214
0.026641869595683754      726.960605592301
0.02684327929182417       725.9339203148797
0.027044847609757647      724.8610620600577
0.02724673283158932       723.7420308278347
0.027449092495796006      722.5768266182109
0.02765135518998453       721.4470925680176
0.027853143803698084      720.3063344929881
0.028054615743803996      719.1545523931223
0.028255929159991804      717.9917462684205
0.028457242575555555      716.8179161188823
0.028658714513790734      715.6330619445081
0.028860503124391312      714.4371837452977
0.029062765814231884      713.230281521251
0.029265100752448706      712.0332886270019
0.02946696141141544       710.8646173230029
0.029668505276199596      709.7242676092541
0.029869890575077548      708.6122394857551
0.03007127591008127       707.5285329525063
0.030272819883157453      706.4731480095076
0.03047468072232762       705.446084656759
0.030677015912237836      704.4473428942605
0.030879305594778746      703.537251632516
0.03108112103494649       702.6685536335352
0.031282619677010744      701.8412488973183
0.03148395970843373       701.055337423865
0.0316852996905265        700.3108192131754
0.031886798184716555      699.6076942652496
0.032088613378814135      698.9459625800876
0.03229090271766436       698.3256241576893
0.03249314477533616       697.916264079962
0.03269491316800606       697.567596949755
0.03289636518952694       697.2796227670686
0.03309765887540427       697.0523415319025
0.033298952634071295      696.8857532442566
0.033500404873789524      696.7798579041313
0.03370217362955133       696.7346555115262
0.03390441619436107       696.7501460664414
0.03410686840969767       696.887251505688
0.03430884535332711       697.0854649154845
0.0345105048019665        697.3447862958311
0.034712005278138794      697.6652156467277
0.03491350567956333       698.0467529681742
0.03511516490413611       698.4893982601707
0.035317141474908095      698.9931515227171
0.03551959316946952       699.5580127558135
0.035722216260139425      700.2856842282828
0.03592436286389621       701.0598878958482
0.036126191200505704      701.8806237585095
0.03632786023882611       702.7478918162669
0.03652952932442421       703.6616920691204
0.036731357802754806      704.6220245170698
0.03693350464234149       705.6288891601155
0.03713612806239678       706.6822859982569
0.03733848789969145       707.8085510269378
0.037540373227224554      708.956739387201
0.03774194158292153       710.1268510790463
0.03794335124849304       711.3188861024739
0.03814476087977932       712.5328444574839
0.03834632913270157       713.7687261440758
0.03854821428921239       715.0265311622502
0.038750573887637245      716.3062595120067
0.03895283596123875       717.6630506496266
0.039154623958694366      719.0031707755705
0.039356095285438375      720.3266198898388
0.03955740808971597       721.633397992431
0.03975872089337115       722.9235050833474
0.03996019221824938       724.1969411625878
0.04016198021260023       725.4537062301524
0.04036424228186526       726.6938002860412
0.040566577948397485      727.9206338760449
0.040768439330593605      729.1064892852813
0.04096998391520435       730.2513665137504
0.04117136993220262       731.3552655614524
0.04137275598532357       732.4181864283871
0.04157430067821714       733.4401291145546
0.04177616224060133       734.4210936199547
0.0419784981588055        735.3610799445876
0.04218078754816035       736.2877927465196
0.04238260269718259       737.141704462447
0.04258410104946696       737.9228150923699
0.04278544079179545       738.6311246362882
0.04298678048479618       739.2666330942019
0.043188278689213704      739.8293404661108
0.043390093592177985      740.3192467520154
0.04359238263785921       740.7363519519153
0.043794623705544454      741.2139497868177
0.04399639111513442       741.6133637549324
0.04419784215819482       741.9345938562593
0.04439913486792596       742.1776400907985
0.044600427650446826      742.3425024585499
0.04480187891170468       742.4291809595136
0.045003646684386715      742.4376755936894
0.04520588825921017       742.3679863610777
