% Model:              brazing.mph
% Version:            COMSOL 5.3.0.223
% Date:               Oct 24 2018, 05:55
% Dimension:          1
% Nodes:              161
% Expressions:        1
% Description:        Line graph
% x                       Height
0                         796.9824483765011
1.9693985890610136E-4     796.9447893924136
3.9298030043864816E-4     796.9181708424361
5.884188308682271E-4      796.9025927265687
7.835557095112735E-4      796.8980550448115
9.786925881542028E-4      796.9045577971643
0.0011741311185834375     796.922100983627
0.0013701715601154056     796.9506846041999
0.0015671114190207022     796.9903086588828
0.0017642608961497635     796.7434099168185
0.0019605081241513326     796.4895384403136
0.0021561515411346144     796.228694229368
0.002351492352702621      795.9608772839819
0.0025468331642698894     795.686087604155
0.0027424765812509564     795.4043251898876
0.0029387238092488436     795.1155900411794
0.0031358732863727766     794.8198821580307
0.0033326885608882563     794.4377406246127
0.0035286060983021257     794.0582688593566
0.0037239228519497995     793.681466862262
0.003918938519653848      793.3073346333291
0.004113954187357973      792.9358721725579
0.004309270941005876      792.5670794799481
0.004505188478420127      792.2009565554998
0.004702003752936137      791.8375033992135
0.004899138702461749      791.4747881738041
0.005095371599302965      791.128344927478
0.005291000816927052      790.7981736602356
0.005486327495291825      790.4842743720766
0.005681654173656831      790.186647063001
0.0058772833912816074     789.9052917330092
0.0060735162881239745     789.6402083821007
0.006270651237651189      789.3913970102757
0.006467582778148322      789.2091410582183
0.006663615013526554      789.0623474426067
0.006859045413116663      788.9510161634408
0.0070541741987231454     788.8751472207213
0.007249302984329781      788.8347406144475
0.007444733383920351      788.8297963446197
0.007640765619299351      788.8603144112379
0.007837697159797551      788.9262948143022
0.008034634474091872      788.9277025070891
0.008230672405352359      788.9683237739536
0.008426108448549354      789.048158614895
0.008621242851524007      789.167207029914
0.008816377254498534      789.3254690190103
0.009011813297695145      789.5229445821836
0.009207851228955002      789.7596337194344
0.00940478854324844       790.0355364307624
0.00960192671152544       790.3884031986353
0.00979816278359587       790.755242015577
0.009993795147248338      791.1360528815875
0.010189124956984269      791.5308357966668
0.010384454766719743      791.9395907608149
0.010580087130370853      792.3623177740318
0.010776323202439026      792.7990168363175
0.01097346137071288       793.249687947672
0.011170281912174305      793.6652393544617
0.011366204645540166      794.0886871991198
0.011561526547508357      794.5200314816451
0.011756547339625332      794.9592722020387
0.011951568131742307      795.4064093603
0.0121468900337105        795.8614429564292
0.012342812767076368      796.3243729904265
0.0125396333085378        796.7951994622914
0.012736771215691979      797.1221828228973
0.012933007030171178      797.4434862579095
0.013128639138602195      797.7591097673279
0.013323968694306592      798.0690533511525
0.013519298250011432      798.3733170093834
0.013714930358443784      798.6719007420205
0.0139111661729252        798.9648045490636
0.014108304080082462      799.2520284305132
0.014305241249097643      799.2622683024373
0.014501279037039759      799.2733825237666
0.014696714938233999      799.2853710945006
0.014891849199866372      799.2982340146399
0.015086983461498874      799.3119712841839
0.015282419362693495      799.326582903133
0.01547845715063625       799.342068871487
0.015675394319652317      799.3584291892461
0.015872325504405583      798.9698859450106
0.01606835738884011       798.5849008820823
0.016263787440706973      798.2034740004607
0.016458915880206496      797.8256053001463
0.016654044319705866      797.4512947811387
0.016849474371572262      797.080542443438
0.017045506256006017      796.7133482870444
0.017242437440758204      796.3497123119577
0.01743957168037589       795.7574362596064
0.017635803876907424      795.1523803696697
0.01783143240066149       794.5345446421476
0.018026758388388308      793.9039290770396
0.01822208437611492       793.2605336743462
0.01841771289986836       792.6043584340672
0.018613945096398854      791.9354033562028
0.018811079336015085      791.2536684407527
0.019007894687321662      790.5476807241354
0.01920381230049143       789.8420344682748
0.019399129129200405      789.1367296731713
0.01959414487161704       788.4317663388243
0.01978916061403359       787.7271444652341
0.01998447744274231       787.0228640524007
0.020180395055911654      786.3189251003242
0.020377210407217645      785.6153276090043
0.020574360469106157      784.9889750961698
0.020770608273960874      784.3837710728538
0.020966252262493188      783.7997155390555
0.021161593642948652      783.2368084947753
0.021356935023404883      782.6950499400133
0.021552579011939476      782.1744398747693
0.021748826816797996      781.6749782990433
0.021945976878691802      781.1966652128357
0.022142917141692885      780.834629893236
0.022338957981867254      780.5194147668909
0.022534396907280062      780.2510198337999
0.02272953417907009       780.0294450939635
0.02292467145086023       779.8546905473814
0.02312011037627338       779.7267561940538
0.02331615121644832       779.6456420339806
0.023513091479450195      779.6113480671617
0.023710025135207962      779.5319746239389
0.02390605945730262       779.5043889208401
0.024101491924457957      779.5285909578653
0.024296622768016963      779.6045807350146
0.024491753611575823      779.7323582522878
0.02468718607873073       779.9119235096847
0.024883220400824673      780.1432765072058
0.025080154056581445      780.4264172448508
0.025277299572591536      780.8375501214733
0.025473542893039384      781.2701712272388
0.02566918243840792       781.7242805621466
0.025864519396400307      782.1998781261972
0.026059856354392216      782.6969639193902
0.026255495899759323      783.215537941726
0.026451739220204794      783.7556001932043
0.026648884736211575      784.3171506738253
0.02684569473774919       784.9373143993151
0.027041607073256636      785.5621550806658
0.027236918672681274      786.1916727178776
0.027431929210095855      786.8258673109505
0.027626939747510428      787.4647388598843
0.027822251346935042      788.1082873646793
0.028018163682442445      788.7565128253351
0.028214973683980002      789.4094152418521
0.028412120943583204      790.0436184375375
0.028608365984047285      790.6635390805908
0.02880400723361381       791.2691771710118
0.02899934588786498       791.8605327088006
0.02919468454211669       792.4376056939572
0.029390325791684838      793.0003961264814
0.02958657083215161       793.5489040063734
0.029783718091758563      794.0831293336333
0.029980652759780888      794.4504314741295
0.030176688080480362      794.8163372545861
0.030372121537075924      795.1808466750039
0.03056725336547531       795.5439597353819
0.030762385193874833      795.9056764357207
0.030957818650470807      796.2659967760202
0.031153853971170976      796.6249207562804
0.031350788639194264      796.9824483765011
