% Model:              brazing.mph
% Version:            COMSOL 5.3.0.223
% Date:               Oct 24 2018, 04:05
% Dimension:          1
% Nodes:              225
% Expressions:        1
% Description:        Line graph
% x                       Height
0                         649.7123631024624
2.1191841480136804E-4     649.6208651623231
4.2353438892247565E-4     649.4901174705674
6.349689892252786E-4      649.320120027195
8.463435942227858E-4      649.1108728322063
0.001057779685752053      648.8623758856013
0.001269398639759412      648.5746291873796
0.001481321517995422      648.2476327375416
0.0017252358262731596     647.8116469051985
0.0019686866163640313     647.3447647943857
0.0022118589563155885     646.8469864051033
0.002454938550168189      646.3183117373512
0.0026981113144448556     645.7587407911299
0.0029415629522145732     645.1682735664384
0.0031854785295931678     644.5469100632776
0.0034450106912723537     643.7791036972402
0.0037039863009040125     642.9800209922357
0.003962627412610827      642.1496619482634
0.0042211569424298        641.2880265653239
0.004479798094906585      640.3951148434173
0.004738773785972872      639.4709267825428
0.004998306069542035      638.5154623827012
0.005274868491808245      637.3924751997154
0.005550758931995686      636.2526158520001
0.0058262454501036105     635.0958843395554
0.006101597285810183      633.9222806623812
0.006377084073678616      632.7318048204781
0.006652975052596927      631.5244568138452
0.006929538280995558      630.3002366424831
0.007206101510950518      629.0277056454618
0.007481992491406557      627.7731871005807
0.007757479280801014      626.5366810078398
0.00803283111802884       625.318187367239
0.008308317637660222      624.1177061787789
0.008584208079380276      622.9352374424589
0.008860770503195153      621.7707811582792
0.009120302815147717      620.6762443195031
0.00937927853441616       619.6238123668387
0.009637919714987194      618.6134853002859
0.009896449272866283      617.6452631198448
0.010155090412673047      616.7191458255156
0.010414066050518256      615.8351334172978
0.01067359824059789       614.9932258951918
0.010917512776055054      614.2262999824255
0.011160965100129169      613.5113945503534
0.011404139717480647      612.8485095989757
0.01164722176512739       612.2376451282923
0.011890396591516505      611.6788011383035
0.012133849333188814      611.1719776290086
0.012377764493855997      610.7171746004083
0.01258968694000722       610.3651293230022
0.012801305803204788      610.0545908145245
0.013012742322906452      609.7855590749755
0.013224118052332232      609.5580341043551
0.01343555464954572       609.3720159026634
0.013647173667633327      609.2275044699
0.013859096345786744      609.1244998060655
0.014071014760598048      609.0792483625119
0.014282630734729056      609.0747214820295
0.01449406533504172       609.1109191646183
0.014705439940049088      609.1878414102786
0.014916876031588231      609.3054882190102
0.015128494985605482      609.4638595908128
0.015340417863851432      609.662955525687
0.01558433217214941       609.911665553473
0.015827782962260412      610.2197069067988
0.016070955302232025      610.5870795856645
0.016314034896104664      611.01378359007
0.0165572076604014        611.4998189200156
0.01680065929819124       612.0451855755008
0.01704457487559009       612.649883556526
0.01730410703726679       613.3099121544194
0.017563082646895985      614.0112533611654
0.01782172375860034       614.7539071767632
0.018080253288416847      615.5378736012132
0.01833889444089119       616.3631526345157
0.018597870131955005      617.22974427667
0.018857402415521692      618.1376485276767
0.019133964837753384      619.1091605205844
0.019409855277906563      620.0999961523078
0.019685341795980367      621.1101554228463
0.019960693631652874      622.1396383322005
0.0202361804194872        623.1884448803705
0.020512071398371242      624.2565750673555
0.020788634626735362      625.3440288931562
0.02106519785666259       626.4008497673209
0.021341088837091095      627.4464189058064
0.021616575626458134      628.4807363086121
0.02189192746365859       629.5038019757388
0.022167413983262562      630.5156159071863
0.02244330442495508       631.5161781029541
0.022719866848742224      632.5054885630427
0.022979399160698737      633.3301161759163
0.023238374879971102      634.1337793283058
0.023497016060546046      634.9164780202111
0.023755545618429033      635.6782122516324
0.02401418675823971       636.4189820225699
0.024273162396088833      637.1387873330231
0.024532694586172417      637.8376281829924
0.02477660912165014       638.4127732732647
0.02502006144574469       638.9549301444011
0.025263236063116538      639.4640987964015
0.025506318110783622      639.9402792292657
0.025749492937193107      640.3834714429942
0.02599294567888585       640.7936754375862
0.026236860839573585      641.1708912130424
0.026448783285734738      641.4424624091859
0.02666040214894219       641.6965759680845
0.026871838668653707      641.9332318897381
0.027083214398089334      642.1524301741468
0.027294650995312687      642.3541708213108
0.027506270013410168      642.5384538312296
0.02771819269157351       642.7052792039037
0.02793011110637494       642.7787704676176
0.028141727080496122      642.8333802479802
0.028353161680798985      642.8691085449917
0.028564536285796558      642.8859553586519
0.028775972377325904      642.8839206889613
0.028987591331333325      642.8630045359191
0.029199514209569403      642.8232068995259
0.02944342851784522       642.6451371817911
0.02968687930793418       642.4241405956801
0.02993005164788383       642.1602171411924
0.030173131241734534      641.8533668183283
0.0304163040060093        641.5035896270878
0.0306597556437771        641.1108855674704
0.030903671221153783      640.6752546394769
0.031163203382828072      640.0494318587051
0.03142217899245488       639.3788484396234
0.03168082010415685       638.6635043822317
0.03193934963397098       637.9033996865301
0.032197990786442934      637.098534352519
0.03245696647750436       636.2489083801976
0.032716498761068635      635.3545217695664
0.03299306118333142       634.2203125817634
0.03326895162351545       633.0658005788445
0.03354443814161999       631.8909857608097
0.03381978997732317       630.6958681276589
0.034095276765188226      629.4804476793922
0.03437116774410313       628.2447244160095
0.03464773097249833       626.988698337511
0.034924294202460265      625.6533325572406
0.03520018518292322       624.3392711818357
0.03547567197232456       623.0465142112967
0.035751023809559274      621.7750616456232
0.036026510329197556      620.5249134848157
0.036302400770924524      619.2960697288735
0.03657896319474637       618.0885303777973
0.036838495506703706      616.9500685623221
0.03709747122597688       615.8651720892236
0.037356112406552636      614.8338409585018
0.03761464196443644       613.8560751701567
0.03787328310424792       612.9318747241888
0.03813225874209787       612.0612396205972
0.03839179093218227       611.2441698593825
0.03863570546763781       610.504341565804
0.038879157791710306      609.829242634017
0.03912233240906017       609.2188730640211
0.03936541445670531       608.6732328558164
0.039608589283092806      608.1923220094033
0.039852042024763494      607.7761405247811
0.04009595718542905       607.4246884019503
0.040307879631580334      607.1551937547796
0.04051949849477797       606.9373853803158
0.0407309350144797        606.7712632785586
0.040942310743905544      606.6568274495085
0.04115374734111909       606.5940778931655
0.04136536635920676       606.583014609529
0.04157728903736024       606.6236375985995
0.04178920745215007       606.7221860484692
0.042000823426259694      606.8709040945686
0.042212258026551035      607.0697917368976
0.04242363263153709       607.3188489754564
0.0426350687230549        607.6180758102452
0.042846687677050764      607.9674722412634
0.04305861055527523       608.3670382685116
0.04330252486354604       608.8546641109288
0.043545975653630026      609.4103475098391
0.04378914799357473       610.0340884652422
0.044032227587420474      610.7258869771387
0.04427540035169028       611.4857430455285
0.04451885198945311       612.3136566704109
0.044762767566824783      613.2096278517866
0.045022299728516735      614.1929168301327
0.04528127533816108       615.2235690310971
0.045539916449880535      616.3015844546793
0.045798445979712124      617.4269631008797
0.046057087132201545      618.5997049696985
0.04631606282328052       619.8198100611348
0.046575595106862454      621.0872783751895
0.04685215752913061       622.4343632746741
0.04712804796931999       623.8055544618375
0.04740353448742985       625.2008519366797
0.04767888632313835       626.6202556992008
0.04795437311100872       628.0637657494011
0.048230264089928976      629.53138208728
0.048506827318329566      631.023104712838
0.04878339054829114       632.4334819605859
0.049059281528753745      633.8239308590557
0.04933476831815475       635.1944514082473
0.0496101201553891        636.5450436081609
0.04988560667502701       637.8757074587966
0.05016149711675364       639.1864429601536
0.050438059540575134      640.4772501122328
0.05069759185254397       641.5124672839919
0.05095656757182859       642.5013421493229
0.05121520875241573       643.4438747082258
0.05147373831031092       644.3400649607007
0.051732379450133786      645.1899129067478
0.05199135508799517       645.9934185463665
0.05225088727809108       646.7505818795572
0.0524948018135407        647.3403098586316
0.052738254137607306      647.8709691882334
0.05298142875495131       648.3425598683621
0.05322451080259058       648.7550818990181
0.0534676856289722        649.1085352802016
0.05371113837063701       649.4029200119119
0.05395505353129665       649.6382360941496
0.05416697597743634       649.7743069419249
0.054378594840622414      649.8685506979804
0.05459003136031263       649.9209673623162
0.05480140708972696       649.9315569349322
0.05501284368692898       649.9003194158289
0.0552244627050051        649.8272548050054
0.05543638538314697       649.7123631024624
