% Model:              brazing.mph
% Version:            COMSOL 5.3.0.223
% Date:               Oct 24 2018, 04:38
% Dimension:          1
% Nodes:              225
% Expressions:        1
% Description:        Line graph
% x                       Height
0                         715.6188734925837
2.02242572596226E-4       715.6046996382754
4.040113375593453E-4      715.5189194719825
6.054635867748898E-4      715.3615329937048
8.067573541103817E-4      715.1325402034427
0.0010080510467017985     714.8319411011959
0.001209503071861434      714.4597356869646
0.0014112714639836859     714.0159239607484
0.001613513515825394      713.5005059225479
0.001815803045808458      713.048844925232
0.0020176184164428694     712.5446123424489
0.0022191170764546647     711.9878081741982
0.0024204572175778446     711.3784324204804
0.00262179740518867       710.7164850812952
0.002823296204553664      710.0019661566429
0.0030251118070788686     709.2348756465229
0.003227401660948015      708.4152135509356
0.0034297372965816655     707.6242030165209
0.003631598594156443      706.7905768162548
0.0038331430353414214     705.914334950137
0.004034528845142556      704.9954774181675
0.004235914622467191      704.0340042203466
0.004437458966299354      703.029915356674
0.004639320101874085      701.9832108271498
0.004841655511239337      700.893890631774
0.005043918276497792      699.9126722672
0.005245706959792293      698.9161805549629
0.0054471789681153834     697.9044154950624
0.00564849245128538       696.8773770874986
0.005849805932728159      695.8350653322716
0.006051277935873691      694.7774802293812
0.00625306661055245       693.7046217788275
0.006455329363777148      692.6164899806105
0.0066576887471433525     691.564159548467
0.0068595736811967985     690.5314725239301
0.007061141707903535      689.5184289069996
0.007262551112883539      688.5250286976755
0.007463960555734714      687.5512718959578
0.007665528695965537      686.5971585018465
0.00786741381892875       685.6626885153416
0.0080697734661485        684.7478619364432
0.008272395437950266      683.9288716683096
0.008474540847339949      683.133047623055
0.008676367906616744      682.3603898006794
0.008878035577337231      681.6108982011827
0.009079703197965442      680.8845728245651
0.009281530107084053      680.1814136708265
0.00948367526660416       679.5014207399668
0.009686296889411194      678.844594031986
0.009888748367913874      678.4298533311551
0.010090724718905934      678.0555588314505
0.010292383720552634      677.7217105328725
0.010493883896490891      677.4283084354207
0.010695384145210549      677.1753525390953
0.010897043365029401      676.9628428438966
0.011099020079070253      676.7907793498242
0.011301472064648224      676.6591620568781
0.011503924099142101      676.6481449052526
0.011705900863193036      676.6791631313723
0.011907560133099505      676.7522167352372
0.012109060430962503      676.8673057168473
0.012310560654077738      677.0244300762029
0.012512219699917606      677.2235898133033
0.012714196091111104      677.4647849281494
0.012916647604829811      677.7480154207403
0.013119269382981878      678.2071871450398
0.013321414683399362      678.700085668668
0.013523241722808088      679.2267109916249
0.013724909467002238      679.7870631139104
0.013926577258472442      680.3811420355247
0.014128404439597363      681.0089477564678
0.014330549975836581      681.6704802767393
0.01453317208336263       682.36573959634
0.014735531766219815      683.1436334102044
0.014937416940401616      683.9340949605587
0.015138985143475461      684.7371242474026
0.015340394656791169      685.5527212707362
0.015541804135826716      686.3808860305597
0.015743372236141022      687.2216185268727
0.015945257239325793      688.0749187596756
0.01614761668334845       688.9407867289682
0.01634987940592303       689.949247970977
0.016551668047823844      690.9425286052934
0.016753140015983766      691.9206286319172
0.0169544534601584        692.8835480508485
0.017155766903708087      693.8312868620874
0.017357238869994664      694.7638450656335
0.017559027508778132      695.6812226614873
0.01776129022699866       696.5834196496484
0.017963625484858744      697.5199710824703
0.018165486461237414      698.4295080540458
0.018367030641941378      699.3120305643752
0.018568416255992027      700.167538613458
0.018769801906169285      700.9960322012946
0.018971346195167795      701.7975113278848
0.019173207351754082      702.5719759932285
0.019375542861313405      703.3194261973262
0.019577832661189145      704.1008183666786
0.019779648217873542      704.8228493372488
0.019981146975907166      705.4855191090368
0.020182487123025287      706.0888276820424
0.020383827220813066      706.6327750562657
0.020585325830972126      707.1173612317068
0.020787141141585735      707.5425862083655
0.020989430597769934      707.9084499862419
0.021191672662378012      708.4156259908842
0.021393441061935803      708.851661221005
0.02159489309031221       709.2165556766039
0.021796186783028852      709.5103093576812
0.021997480548535182      709.7329222642368
0.022198932795108938      709.8843943962707
0.022400701557758636      709.9647257537829
0.02260294412950465       709.9739163367732
0.02280539620920995       710.0439768556464
0.023007373018156245      710.0403850519616
0.02320903233274668       709.9631409257188
0.023410532675187733      709.8122444769181
0.023612032942881025      709.5876957055593
0.023813692033404853      709.2894946116425
0.024015668469493705      708.917641195168
0.024218120028423832      708.4721354561352
0.024420742013481003      708.063734352909
0.02462288751935683       707.5955672955265
0.02482471476325633       707.0676342839876
0.02502638271145666       706.4799353182923
0.025228050706933344      705.8324703984407
0.025429878092549915      705.1252395244327
0.025632023834248962      704.3582426962681
0.025834646148682177      703.5314799139474
0.026037006051731277      702.707152817416
0.026238891444565628      701.8374545757674
0.02644045986526205       700.9223851890015
0.026641869595683754      699.9619446571184
0.02684327929182417       698.9561329801179
0.027044847609757647      697.9049501580002
0.02724673283158932       696.8083961907655
0.027449092495796006      695.6664710784135
0.02765135518998453       694.570463473108
0.027853143803698084      693.4637372080847
0.028054615743803996      692.3462922833436
0.028255929159991804      691.2181286988846
0.028457242575555555      690.0792464547077
0.028658714513790734      688.929645550813
0.028860503124391312      687.7693259872004
0.029062765814231884      686.5982877638701
0.029265100752448706      685.4349753887046
0.02946696141141544       684.2995265788014
0.029668505276199596      683.1919413341603
0.029869890575077548      682.1122196547815
0.03007127591008127       681.0603615406649
0.030272819883157453      680.0363669918103
0.03047468072232762       679.040236008218
0.030677015912237836      678.0719685898878
0.030879305594778746      677.193508152715
0.03108112103494649       676.3544400626669
0.031282619677010744      675.5547643197432
0.03148395970843373       674.7944809239443
0.0316852996905265        674.07358987527
0.031886798184716555      673.3920911737202
0.032088613378814135      672.7499848192952
0.03229090271766436       672.1472708119948
0.03249314477533616       671.7604324179616
0.03269491316800606       671.4318790117823
0.03289636518952694       671.1616105934567
0.03309765887540427       670.949627162985
0.033298952634071295      670.7959287203672
0.033500404873789524      670.7005152656031
0.03370217362955133       670.6633867986928
0.03390441619436107       670.6845433196365
0.03410686840969767       670.8265314309572
0.03430884535332711       671.0272664994973
0.0345105048019665        671.2867485252567
0.034712005278138794      671.6049775082356
0.03491350567956333       671.9819534484338
0.03511516490413611       672.4176763458515
0.035317141474908095      672.9121462004887
0.03551959316946952       673.4653630123452
0.035722216260139425      674.1834179697917
0.03592436286389621       674.9461625856335
0.036126191200505704      675.7535968598706
0.03632786023882611       676.6057207925032
0.03652952932442421       677.5025343835312
0.036731357802754806      678.4440376329544
0.03693350464234149       679.430230540773
0.03713612806239678       680.4611131069871
0.03733848789969145       681.5647307159398
0.037540373227224554      682.6891366351533
0.03774194158292153       683.8343308646274
0.03794335124849304       685.0003134043624
0.03814476087977932       686.187084254358
0.03834632913270157       687.3946434146142
0.03854821428921239       688.6229908851313
0.038750573887637245      689.872126665909
0.03895283596123875       691.2039940517211
0.039154623958694366      692.5193818874953
0.039356095285438375      693.8182901732317
0.03955740808971597       695.10071890893
0.03975872089337115       696.3666680945906
0.03996019221824938       697.6161377302133
0.04016198021260023       698.8491278157979
0.04036424228186526       700.0656383513448
0.040566577948397485      701.2677519443833
0.040768439330593605      702.4303470927441
0.04096998391520435       703.5534237964272
0.04117136993220262       704.6369820554324
0.04137275598532357       705.6810218697598
0.04157430067821714       706.6855432394096
0.04177616224060133       707.6505461643816
0.0419784981588055        708.5760306446759
0.04218078754816035       709.4923050542291
0.04238260269718259       710.3362944465655
0.04258410104946696       711.107998821685
0.04278544079179545       711.8074181795878
0.04298678048479618       712.4345525202739
0.043188278689213704      712.989401843743
0.043390093592177985      713.4719661499958
0.04359238263785921       713.8822454390314
0.043794623705544454      714.3722675006484
0.04399639111513442       714.7843056894303
0.04419784215819482       715.118360005377
0.04439913486792596       715.3744304484886
0.044600427650446826      715.5525170187651
0.04480187891170468       715.6526197162065
0.045003646684386715      715.6747385408127
0.04520588825921017       715.6188734925837
