% Model:              brazing.mph
% Version:            COMSOL 5.3.0.223
% Date:               Oct 24 2018, 03:23
% Dimension:          1
% Nodes:              225
% Expressions:        1
% Description:        Line graph
% x                       Height
0                         696.9937647386196
2.1191841480136804E-4     696.8869978716357
4.2353438892247565E-4     696.7372940780425
6.349689892252786E-4      696.54465335784
8.463435942227858E-4      696.3090757110282
0.001057779685752053      696.0305611376076
0.001269398639759412      695.7091096375774
0.001481321517995422      695.3447212109381
0.0017252358262731596     694.861804018611
0.0019686866163640313     694.3428872113208
0.0022118589563155885     693.7879707890673
0.002454938550168189      693.1970547518507
0.0026981113144448556     692.570139099671
0.0029415629522145732     691.9072238325277
0.0031854785295931678     691.2083089504216
0.0034450106912723537     690.3612058139096
0.0037039863009040125     689.4784726475604
0.003962627412610827      688.5601094513737
0.0042211569424298        687.6061162253496
0.004479798094906585      686.6164929694888
0.004738773785972872      685.5912396837901
0.004998306069542035      684.5303563682545
0.005274868491808245      683.3014043947261
0.005550758931995686      682.0528911298157
0.0058262454501036105     680.7848165735239
0.006101597285810183      679.4971807258503
0.006377084073678616      678.1899835867954
0.006652975052596927      676.8632251563586
0.006929538280995558      675.5169054345401
0.007206101510950518      674.1277350655024
0.007481992491406557      672.7558929405088
0.007757479280801014      671.401379059559
0.00803283111802884       670.0641934226531
0.008308317637660222      668.7443360297916
0.008584208079380276      667.4418068809736
0.008860770503195153      666.1566059761997
0.009120302815147717      664.9542085632961
0.00937927853441616       663.795652846931
0.009637919714987194      662.6809388271042
0.009896449272866283      661.610066503816
0.010155090412673047      660.5830358770664
0.010414066050518256      659.599846946855
0.01067359824059789       658.6604997131822
0.010917512776055054      657.806543103431
0.011160965100129169      657.0079720479324
0.011404139717480647      656.2647865466863
0.01164722176512739       655.5769865996928
0.011890396591516505      654.9445722069523
0.012133849333188814      654.3675433684642
0.012377764493855997      653.8459000842288
0.01258968694000722       653.4382146228487
0.012801305803204788      653.075245944379
0.013012742322906452      652.7569940488198
0.013224118052332232      652.4834589361711
0.01343555464954572       652.2546406064332
0.013647173667633327      652.0705390596054
0.013859096345786744      651.9311542956883
0.014071014760598048      651.8521109260377
0.014282630734729056      651.81706810858
0.01449406533504172       651.8260258433154
0.014705439940049088      651.8789841302439
0.014916876031588231      651.9759429693659
0.015128494985605482      652.1169023606803
0.015340417863851432      652.3018623041883
0.01558433217214941       652.5377468448615
0.015827782962260412      652.8368717382713
0.016070955302232025      653.1992369844173
0.016314034896104664      653.6248425832999
0.0165572076604014        654.1136885349192
0.01680065929819124       654.6657748392746
0.01704457487559009       655.2811014963668
0.01730410703726679       655.9579605653861
0.017563082646895985      656.6790812329626
0.01782172375860034       657.4444634990958
0.018080253288416847      658.2541073637861
0.01833889444089119       659.1080128270336
0.018597870131955005      660.0061798888377
0.018857402415521692      660.948608549199
0.019133964837753384      661.9652207931828
0.019409855277906563      663.0023831896356
0.019685341795980367      664.0600957385576
0.019960693631652874      665.1383584399491
0.0202361804194872        666.23717129381
0.020512071398371242      667.3565343001397
0.020788634626735362      668.4964474589391
0.02106519785666259       669.6109222722712
0.021341088837091095      670.7133657293294
0.021616575626458134      671.8037778301142
0.02189192746365859       672.8821585746254
0.022167413983262562      673.9485079628635
0.02244330442495508       675.0028259948276
0.022719866848742224      676.0451126705183
0.022979399160698737      676.9308560116739
0.023238374879971102      677.7928908830482
0.023497016060546046      678.6312172846407
0.023755545618429033      679.4458352164517
0.02401418675823971       680.2367446784814
0.024273162396088833      681.0039456707292
0.024532694586172417      681.7474381931956
0.02477660912165014       682.371714244866
0.02502006144574469       682.9614525577301
0.025263236063116538      683.5166531317877
0.025506318110783622      684.0373159670389
0.025749492937193107      684.523441063484
0.02599294567888585       684.9750284211223
0.026236860839573585      685.3920780399543
0.026448783285734738      685.7000115467371
0.02666040214894219       685.9863023398142
0.026871838668653707      686.250950419185
0.027083214398089334      686.4939557848498
0.027294650995312687      686.7153184368088
0.027506270013410168      686.9150383750615
0.02771819269157351       687.0931155996084
0.02793011110637494       687.1859395784746
0.028141727080496122      687.2550719626358
0.028353161680798985      687.3005127520919
0.028564536285796558      687.3222619468428
0.028775972377325904      687.320319546889
0.028987591331333325      687.2946855522296
0.029199514209569403      687.2453599628653
0.02944342851784522       687.0540455252507
0.02968687930793418       686.8178766605176
0.02993005164788383       686.5368533686658
0.030173131241734534      686.2109756496955
0.0304163040060093        685.8402435036068
0.0306597556437771        685.424656930399
0.030903671221153783      684.9642159300729
0.031163203382828072      684.3152511714875
0.03142217899245488       683.6187483509447
0.03168082010415685       682.8747074684444
0.03193934963397098       682.0831285239865
0.032197990786442934      681.2440115175714
0.03245696647750436       680.3573564491983
0.032716498761068635      679.423163318868
0.03299306118333142       678.2517411693128
0.03326895162351545       677.0584800345565
0.03354443814161999       675.843379914599
0.03381978997732317       674.6064408094402
0.034095276765188226      673.3476627190805
0.03437116774410313       672.0670456435192
0.03464773097249833       670.764589582757
0.034924294202460265      669.3892612320396
0.03520018518292322       668.034835018894
0.03547567197232456       666.7013109433195
0.035751023809559274      665.3886890053169
0.036026510329197556      664.0969692048861
0.036302400770924524      662.8261515420267
0.03657896319474637       661.5762360167388
0.036838495506703706      660.4048633184699
0.03709747122597688       659.2890434127564
0.037356112406552636      658.2287762995982
0.03761464196443644       657.2240619789958
0.03787328310424792       656.2749004509488
0.03813225874209787       655.3812917154572
0.03839179093218227       654.5432357725214
0.03863570546763781       653.7891801561128
0.038879157791710306      653.1036026394639
0.03912233240906017       652.4865032225745
0.03936541445670531       651.9378819054446
0.039608589283092806      651.4577386880744
0.039852042024763494      651.0460735704635
0.04009595718542905       650.7028865526123
0.040307879631580334      650.4434889097107
0.04051949849477797       650.2392651910797
0.0407309350144797        650.0902153967195
0.040942310743905544      649.9963395266298
0.04115374734111909       649.957637580811
0.04136536635920676       649.9741095592625
0.04157728903736024       650.0457554619849
0.04178920745215007       650.1784062503316
0.042000823426259694      650.3645236111889
0.042212258026551035      650.6041075445565
0.04242363263153709       650.8971580504348
0.0426350687230549        651.2436751288237
0.042846687677050764      651.6436587797228
0.04305861055527523       652.0971090031327
0.04330252486354604       652.6513707176823
0.043545975653630026      653.2768789084283
0.04378914799357473       653.9736335753706
0.044032227587420474      654.7416347185092
0.04427540035169028       655.5808823378442
0.04451885198945311       656.4913764333752
0.044762767566824783      657.4731170051027
0.045022299728516735      658.5522299512995
0.04528127533816108       659.6806414883212
0.045539916449880535      660.8583516161673
0.045798445979712124      662.0853603348378
0.046057087132201545      663.3616676443334
0.04631606282328052       664.687273544653
0.046575595106862454      666.0621780357975
0.04685215752913061       667.5275113235531
0.04712804796931999       669.0158623932303
0.04740353448742985       670.527231244829
0.04767888632313835       672.0616178783492
0.04795437311100872       673.6190222937913
0.048230264089928976      675.1994444911546
0.048506827318329566      676.8028844704397
0.04878339054829114       678.3211280608217
0.049059281528753745      679.8159187801621
0.04933476831815475       681.287256628461
0.0496101201553891        682.7351416057184
0.04988560667502701       684.1595737119345
0.05016149711675364       685.5605529471088
0.050438059540575134      686.9380793112418
0.05069759185254397       688.0587600680807
0.05095656757182859       689.1282074567184
0.05121520875241573       690.146421477155
0.05147373831031092       691.1134021293906
0.051732379450133786      692.0291494134253
0.05199135508799517       692.8936633292586
0.05225088727809108       693.7069438768912
0.0524948018135407        694.3484339431571
0.052738254137607306      694.9266898975172
0.05298142875495131       695.4417117399718
0.05322451080259058       695.8934994705206
0.0534676856289722        696.282053089164
0.05371113837063701       696.6073725959016
0.05395505353129665       696.8694579907335
0.05416697597743634       697.0270162257344
0.054378594840622414      697.1379744180155
0.05459003136031263       697.2023325675761
0.05480140708972696       697.220090674417
0.05501284368692898       697.1912487385381
0.0552244627050051        697.1158067599387
0.05543638538314697       696.9937647386196
