% Model:              brazing.mph
% Version:            COMSOL 5.3.0.223
% Date:               Oct 24 2018, 04:55
% Dimension:          1
% Nodes:              161
% Expressions:        1
% Description:        Line graph
% x                       Height
0                         665.7058853569607
1.9693985890610136E-4     665.6737293085298
3.9298030043864816E-4     665.6522601712112
5.884188308682271E-4      665.6414779450051
7.835557095112735E-4      665.6413826299114
9.786925881542028E-4      665.6519742259302
0.0011741311185834375     665.6732527330614
0.0013701715601154056     665.705218151305
0.0015671114190207022     665.747870480661
0.0017642608961497635     665.5079929534413
0.0019605081241513326     665.2633310565429
0.0021561515411346144     665.0138847899666
0.002351492352702621      664.7596541537116
0.0025468331642698894     664.5006391477783
0.0027424765812509564     664.2368397721667
0.0029387238092488436     663.9682560268768
0.0031358732863727766     663.6948879119085
0.0033326885608882563     663.3223776822504
0.0035286060983021257     662.954144008034
0.0037239228519497995     662.5901868892586
0.003918938519653848      662.2305063259247
0.004113954187357973      661.8751023180322
0.004309270941005876      661.5239748655811
0.004505188478420127      661.1771239685714
0.004702003752936137      660.8345496270031
0.004899138702461749      660.4819400817419
0.005095371599302965      660.145748096614
0.005291000816927052      659.8259736716194
0.005486327495291825      659.5226168067582
0.005681654173656831      659.2356775020302
0.0058772833912816074     658.9651557574355
0.0060735162881239745     658.7110515729742
0.006270651237651189      658.4733649486461
0.006467582778148322      658.2934303409775
0.006663615013526554      658.1470134321037
0.006859045413116663      658.0341142220251
0.0070541741987231454     657.9547327107414
0.007249302984329781      657.9088688982525
0.007444733383920351      657.8965227845588
0.007640765619299351      657.91769436966
0.007837697159797551      657.9723836535561
0.008034634474091872      657.9685795326537
0.008230672405352359      658.0024320021437
0.008426108448549354      658.0739410620257
0.008621242851524007      658.1831067123002
0.008816377254498534      658.329928952967
0.009011813297695145      658.5144077840259
0.009207851228955002      658.7365432054772
0.00940478854324844       658.9963352173207
0.00960192671152544       659.3196094035868
0.00979816278359587       659.6576130592024
0.009993795147248338      660.0103461841677
0.010189124956984269      660.3778087784826
0.010384454766719743      660.7600008421473
0.010580087130370853      661.1569223751618
0.010776323202439026      661.5685733775258
0.01097346137071288       661.9949538492397
0.011170281912174305      662.3791494046417
0.011366204645540166      662.7726443679534
0.011561526547508357      663.1754387391749
0.011756547339625332      663.5875325183058
0.011951568131742307      664.0089257053467
0.0121468900337105        664.439618300297
0.012342812767076368      664.8796103031572
0.0125396333085378        665.3289017139269
0.012736771215691979      665.6263735939315
0.012933007030171178      665.9211238783882
0.013128639138602195      666.2131525672969
0.013323968694306592      666.502459660658
0.013519298250011432      666.7890451584713
0.013714930358443784      667.0729090607365
0.0139111661729252        667.354051367454
0.014108304080082462      667.6324720786237
0.014305241249097643      667.6299662180834
0.014501279037039759      667.6299414284904
0.014696714938233999      667.6323977098441
0.014891849199866372      667.6373350621451
0.015086983461498874      667.6447534853929
0.015282419362693495      667.6546529795879
0.01547845715063625       667.6670335447299
0.015675394319652317      667.6818951808187
0.015872325504405583      667.3025406331294
0.01606835738884011       666.927798970094
0.016263787440706973      666.5576701917128
0.016458915880206496      666.1921542979857
0.016654044319705866      665.8312512889127
0.016849474371572262      665.4749611644937
0.017045506256006017      665.1232839247288
0.017242437440758204      664.776219569618
0.01743957168037589       664.2039664957022
0.017635803876907424      663.6212025179509
0.01783143240066149       663.0279276363641
0.018026758388388308      662.4241418509419
0.01822208437611492       661.809845161684
0.01841771289986836       661.1850375685908
0.018613945096398854      660.549719071662
0.018811079336015085      659.9038896708978
0.019007894687321662      659.2248581456419
0.01920381230049143       658.5476061635202
0.019399129129200405      657.8721337245325
0.01959414487161704       657.1984408286792
0.01978916061403359       656.52652747596
0.01998447744274231       655.8563936663751
0.020180395055911654      655.1880393999243
0.020377210407217645      654.5214646766077
0.020574360469106157      653.923261635779
0.020770608273960874      653.3462222236133
0.020966252262493188      652.7903464401102
0.021161593642948652      652.25563428527
0.021356935023404883      651.7420857590928
0.021552579011939476      651.2497008615784
0.021748826816797996      650.7784795927269
0.021945976878691802      650.3284219525382
0.022142917141692885      649.9856913150406
0.022338957981867254      649.6875892703845
0.022534396907280062      649.4341158185696
0.02272953417907009       649.2252709595963
0.02292467145086023       649.0610546934643
0.02312011037627338       648.9414670201737
0.02331615121644832       648.8665079397244
0.023513091479450195      648.8361774521167
0.023710025135207962      648.7667488166368
0.02390605945730262       648.7472630818202
0.024101491924457957      648.7777202476667
0.024296622768016963      648.8581203141765
0.024491753611575823      648.9884632813495
0.02468718607873073       649.1687491491858
0.024883220400824673      649.3989779176853
0.025080154056581445      649.6791495868481
0.025277299572591536      650.0735641830752
0.025473542893039384      650.4895606659197
0.02566918243840792       650.9271390353813
0.025864519396400307      651.3862992914603
0.026059856354392216      651.8670414341566
0.026255495899759323      652.3693654634702
0.026451739220204794      652.893271379401
0.026648884736211575      653.4387591819491
0.02684569473774919       654.0361120630874
0.027041607073256636      654.638799983464
0.027236918672681274      655.2468229430791
0.027431929210095855      655.8601809419324
0.027626939747510428      656.4788739800241
0.027822251346935042      657.1029020573541
0.028018163682442445      657.7322651739225
0.028214973683980002      658.3669633297293
0.028412120943583204      658.9761191003935
0.028608365984047285      659.5731023601076
0.02880400723361381       660.1579131088719
0.02899934588786498       660.7305513466858
0.02919468454211669       661.2910170735498
0.029390325791684838      661.8393102894637
0.02958657083215161       662.3754309944276
0.029783718091758563      662.8993791884415
0.029980652759780888      663.2522607544896
0.030176688080480362      663.6045513791138
0.030372121537075924      663.9562510623144
0.03056725336547531       664.3073598040912
0.030762385193874833      664.6578776044443
0.030957818650470807      665.0078044633734
0.031153853971170976      665.357140380879
0.031350788639194264      665.7058853569607
