% Model:              brazing.mph
% Version:            COMSOL 5.3.0.223
% Date:               Oct 24 2018, 03:25
% Dimension:          1
% Nodes:              225
% Expressions:        1
% Description:        Line graph
% x                       Height
0                         656.3492773893558
2.1191841480136804E-4     656.2517111012129
4.2353438892247565E-4     656.1136634294254
6.349689892252786E-4      655.9351343739935
8.463435942227858E-4      655.7161239349174
0.001057779685752053      655.456632112197
0.001269398639759412      655.1566589058319
0.001481321517995422      654.8162043158227
0.0017252358262731596     654.363241163361
0.0019686866163640313     653.8780182963878
0.0022118589563155885     653.3605357149031
0.002454938550168189      652.810793418907
0.0026981113144448556     652.2287914083996
0.0029415629522145732     651.6145296833804
0.0031854785295931678     650.96800824385
0.0034450106912723537     650.1722462653859
0.0037039863009040125     649.3442083641328
0.003962627412610827      648.4838945400911
0.0042211569424298        647.5913047932606
0.004479798094906585      646.6664391236416
0.004738773785972872      645.7092975312335
0.004998306069542035      644.7198800160369
0.005274868491808245      643.5586225725748
0.005550758931995686      642.3799569099499
0.0058262454501036105     641.1838830281623
0.006101597285810183      639.9704009272122
0.006377084073678616      638.7395106070995
0.006652975052596927      637.4912120678238
0.006929538280995558      636.2255053093855
0.007206101510950518      634.909971058469
0.007481992491406557      633.6126831412113
0.007757479280801014      632.333641557612
0.00803283111802884       631.0728463076717
0.008308317637660222      629.8302973913902
0.008584208079380276      628.6059948087673
0.008860770503195153      627.3999385598032
0.009120302815147717      626.2668690024327
0.00937927853441616       625.1769637593391
0.009637919714987194      624.130222830522
0.009896449272866283      623.126646215982
0.010155090412673047      622.1662339157191
0.010414066050518256      621.2489859297326
0.01067359824059789       620.3749022580232
0.010917512776055054      619.5791701753041
0.011160965100129169      618.8369194581893
0.011404139717480647      618.1481501066788
0.01164722176512739       617.512862120773
0.011890396591516505      616.9310555004716
0.012133849333188814      616.4027302457745
0.012377764493855997      615.9278863566819
0.01258968694000722       615.5596686444605
0.012801305803204788      615.2342876027589
0.013012742322906452      614.9517432315765
0.013224118052332232      614.7120355309139
0.01343555464954572       614.5151645007712
0.013647173667633327      614.3611301411478
0.013859096345786744      614.2499324520442
0.014071014760598048      614.1976557025324
0.014282630734729056      614.1874645672744
0.01449406533504172       614.21935904627
0.014705439940049088      614.2933391395192
0.014916876031588231      614.4094048470222
0.015128494985605482      614.5675561687784
0.015340417863851432      614.7677931047886
0.01558433217214941       615.0195540603659
0.015827782962260412      615.332137875469
0.016070955302232025      615.7055445500981
0.016314034896104664      616.1397740842532
0.0165572076604014        616.6348264779344
0.01680065929819124       617.1907017311414
0.01704457487559009       617.8073998438745
0.01730410703726679       618.4818515195275
0.017563082646895985      619.199022345246
0.01782172375860034       619.9589123210302
0.018080253288416847      620.7615214468801
0.01833889444089119       621.6068497227958
0.018597870131955005      622.4948971487769
0.018857402415521692      623.4256637248238
0.019133964837753384      624.4216486504722
0.019409855277906563      625.4377549413508
0.019685341795980367      626.4739825974593
0.019960693631652874      627.5303316187977
0.0202361804194872        628.6068020053666
0.020512071398371242      629.7033937571653
0.020788634626735362      630.820106874194
0.02106519785666259       631.9033210103343
0.021341088837091095      632.9752929633914
0.021616575626458134      634.0360227333656
0.02189192746365859       635.0855103202566
0.022167413983262562      636.123755724065
0.02244330442495508       637.1507589447899
0.022719866848742224      638.1665199824321
0.022979399160698737      639.0144328638802
0.023238374879971102      639.8411278418989
0.023497016060546046      640.6466049164883
0.023755545618429033      641.4308640876483
0.02401418675823971       642.1939053553791
0.024273162396088833      642.9357287196802
0.024532694586172417      643.6563341805522
0.02477660912165014       644.2500304983415
0.02502006144574469       644.8102046512145
0.025263236063116538      645.3368566391713
0.025506318110783622      645.8299864622118
0.025749492937193107      646.2895941203363
0.02599294567888585       646.7156796135444
0.026236860839573585      647.1082429418362
0.026448783285734738      647.3920866233747
0.02666040214894219       647.6575571409946
0.026871838668653707      647.9046544946963
0.027083214398089334      648.1333786844798
0.027294650995312687      648.3437297103453
0.027506270013410168      648.5357075722924
0.02771819269157351       648.7093122703212
0.02793011110637494       648.7892584745989
0.028141727080496122      648.8491649728828
0.028353161680798985      648.8890317651727
0.028564536285796558      648.9088588514687
0.028775972377325904      648.908646231771
0.028987591331333325      648.8883939060788
0.029199514209569403      648.848101874393
0.02944342851784522       648.6668032244273
0.02968687930793418       648.4413244024258
0.02993005164788383       648.1716654083883
0.030173131241734534      647.857826242315
0.0304163040060093        647.499806904206
0.0306597556437771        647.0976073940607
0.030903671221153783      646.6512277118796
0.031163203382828072      646.0115587977177
0.03142217899245488       645.3261488272053
0.03168082010415685       644.5949978003424
0.03193934963397098       643.8181057171292
0.032197990786442934      642.9954725775658
0.03245696647750436       642.1270983816516
0.032716498761068635      641.2129831293872
0.03299306118333142       640.0531049824237
0.03326895162351545       638.8727018778956
0.03354443814161999       637.6717738158025
0.03381978997732317       636.4503207961446
0.034095276765188226      635.2083428189222
0.03437116774410313       633.9458398841347
0.03464773097249833       632.6628119917826
0.034924294202460265      631.2958162904048
0.03520018518292322       629.9507919803568
0.03547567197232456       628.6277390616385
0.035751023809559274      627.3266575342498
0.036026510329197556      626.0475473981911
0.036302400770924524      624.7904086534617
0.03657896319474637       623.5552413000622
0.036838495506703706      622.3902705321098
0.03709747122597688       621.2801980669121
0.037356112406552636      620.2250239044693
0.03761464196443644       619.2247480447812
0.03787328310424792       618.2793704878482
0.03813225874209787       617.3888912336697
0.03839179093218227       616.5533102822461
0.03863570546763781       615.7976868127687
0.038879157791710306      615.1084981723004
0.03912233240906017       614.4857443608413
0.03936541445670531       613.9294253783912
0.039608589283092806      613.4395412249506
0.039852042024763494      613.0160919005187
0.04009595718542905       612.6590774050962
0.040307879631580334      612.386177487126
0.04051949849477797       612.1665090582665
0.0407309350144797        612.0000721185173
0.040942310743905544      611.8868666678788
0.04115374734111909       611.8268927063514
0.04136536635920676       611.820150233934
0.04157728903736024       611.8666392506275
0.04178920745215007       611.9725445475784
0.042000823426259694      612.1301183938101
0.042212258026551035      612.3393607893222
0.04242363263153709       612.6002717341148
0.0426350687230549        612.9128512281884
0.042846687677050764      613.2770992715423
0.04305861055527523       613.693015864177
0.04330252486354604       614.201623441939
0.043545975653630026      614.7798453925616
0.04378914799357473       615.4276817160448
0.044032227587420474      616.1451324123885
0.04427540035169028       616.932197481593
0.04451885198945311       617.7888769236578
0.044762767566824783      618.7151707385833
0.045022299728516735      619.7323140299604
0.04528127533816108       620.7982269109613
0.045539916449880535      621.9129093815857
0.045798445979712124      623.0763614418337
0.046057087132201545      624.2885830917056
0.04631606282328052       625.5495743312009
0.046575595106862454      626.8593351603199
0.04685215752913061       628.2500141355621
0.04712804796931999       629.6653792788294
0.04740353448742985       631.1054305901216
0.04767888632313835       632.5701680694388
0.04795437311100872       634.0595917167814
0.048230264089928976      635.5737015321486
0.048506827318329566      637.112497515541
0.04878339054829114       638.5634882422767
0.049059281528753745      639.9938965498197
0.04933476831815475       641.4037224381702
0.0496101201553891        642.7929659073284
0.04988560667502701       644.1616269572943
0.05016149711675364       645.5097055880674
0.050438059540575134      646.8372017996481
0.05069759185254397       647.9030206862041
0.05095656757182859       648.9209525288627
0.05121520875241573       649.8909973276242
0.05147373831031092       650.8131550824882
0.051732379450133786      651.6874257934553
0.05199135508799517       652.5138094605246
0.05225088727809108       653.2923060836969
0.0524948018135407        653.8997194108398
0.052738254137607306      654.4464035426076
0.05298142875495131       654.9323584790002
0.05322451080259058       655.3575842200179
0.0534676856289722        655.7220807656608
0.05371113837063701       656.0258481159282
0.05395505353129665       656.2688862708208
0.05416697597743634       656.4105317440979
0.054378594840622414      656.5087902081177
0.05459003136031263       656.56366166288
0.05480140708972696       656.575146108385
0.05501284368692898       656.5432435446329
0.0552244627050051        656.4679539716229
0.05543638538314697       656.3492773893558
