% Model:              brazing.mph
% Version:            COMSOL 5.3.0.223
% Date:               Oct 24 2018, 02:03
% Dimension:          1
% Nodes:              225
% Expressions:        1
% Description:        Line graph
% x                       Height
0                         660.5761482150275
2.1191841480136804E-4     660.4805212081732
4.2353438892247565E-4     660.3447536754189
6.349689892252786E-4      660.168845616765
8.463435942227858E-4      659.9527970322113
0.001057779685752053      659.696607921758
0.001269398639759412      659.4002782854046
0.001481321517995422      659.0638081231516
0.0017252358262731596     658.6156513560851
0.0019686866163640313     658.1351298277816
0.0022118589563155885     657.6222435382409
0.002454938550168189      657.076992487463
0.0026981113144448556     656.4993766754485
0.0029415629522145732     655.8893961021964
0.0031854785295931678     655.2470507677075
0.0034450106912723537     654.4597558240579
0.0037039863009040125     653.6396748731457
0.003962627412610827      652.7868079149713
0.0042211569424298        651.9011549495343
0.004479798094906585      650.9827159768353
0.004738773785972872      650.0314909968735
0.004998306069542035      649.0474800096495
0.005274868491808245      647.8997248886301
0.005550758931995686      646.7340228857361
0.0058262454501036105     645.5503740009672
0.006101597285810183      644.348778234324
0.006377084073678616      643.1292355858063
0.006652975052596927      641.8917460554137
0.006929538280995558      640.6363096431467
0.007206101510950518      639.3372172822445
0.007481992491406557      638.0555403781246
0.007757479280801014      636.7912789307868
0.00803283111802884       635.5444329402314
0.008308317637660222      634.3150024064586
0.008584208079380276      633.1029873294675
0.008860770503195153      631.908387709259
0.009120302815147717      630.7883774446823
0.00937927853441616       629.7105840633958
0.009637919714987194      628.6750075653995
0.009896449272866283      627.6816479506934
0.010155090412673047      626.7305052192779
0.010414066050518256      625.8215793711522
0.01067359824059789       624.9548704063171
0.010917512776055054      624.16594380532
0.011160965100129169      623.4297831158515
0.011404139717480647      622.7463883379111
0.01164722176512739       622.1157594714991
0.011890396591516505      621.5378965166161
0.012133849333188814      621.0127994732609
0.012377764493855997      620.5404683414345
0.01258968694000722       620.1735279333936
0.012801305803204788      619.848786384945
0.013012742322906452      619.5662436960883
0.013224118052332232      619.325899866824
0.01343555464954572       619.127754897152
0.013647173667633327      618.9718087870718
0.013859096345786744      618.858061536584
0.014071014760598048      618.8028993670043
0.014282630734729056      618.7891076491273
0.01449406533504172       618.8166863829531
0.014705439940049088      618.8856355684818
0.014916876031588231      618.9959552057135
0.015128494985605482      619.1476452946476
0.015340417863851432      619.3407058352848
0.01558433217214941       619.5820069255282
0.015827782962260412      619.8838170241821
0.016070955302232025      620.2461361312465
0.016314034896104664      620.6689642467215
0.0165572076604014        621.1523013706076
0.01680065929819124       621.6961475029036
0.01704457487559009       622.3005026436106
0.01730410703726679       622.9615481523845
0.017563082646895985      623.6642851108339
0.01782172375860034       624.408713518959
0.018080253288416847      625.1948333767597
0.01833889444089119       626.0226446842364
0.018597870131955005      626.8921474413883
0.018857402415521692      627.803341648216
0.019133964837753384      628.7832673733833
0.019409855277906563      629.7823350259105
0.019685341795980367      630.8005446057975
0.019960693631652874      631.8378961130445
0.0202361804194872        632.8943895476516
0.020512071398371242      633.9700249096184
0.020788634626735362      635.0648021989452
0.02106519785666259       636.1344959926865
0.021341088837091095      637.1922362478753
0.021616575626458134      638.2380229645116
0.02189192746365859       639.2718561425954
0.022167413983262562      640.2937357821272
0.02244330442495508       641.303661883106
0.022719866848742224      642.3016344455326
0.022979399160698737      643.1424522497047
0.023238374879971102      643.9608564582539
0.023497016060546046      644.7568470711801
0.023755545618429033      645.5304240884834
0.02401418675823971       646.2815875101641
0.024273162396088833      647.0103373362214
0.024532694586172417      647.716673566656
0.02477660912165014       648.3050150195681
0.02502006144574469       648.8599453106544
0.025263236063116538      649.3814644399147
0.025506318110783622      649.8695724073489
0.025749492937193107      650.3242692129575
0.02599294567888585       650.7455548567397
0.026236860839573585      651.1334293386961
0.026448783285734738      651.4161984158827
0.02666040214894219       651.6798644900402
0.026871838668653707      651.9244275611685
0.027083214398089334      652.1498876292678
0.027294650995312687      652.3562446943382
0.027506270013410168      652.5434987563792
0.02771819269157351       652.7116498153913
0.02793011110637494       652.7915724812184
0.028141727080496122      652.8507864330452
0.028353161680798985      652.8892916708712
0.028564536285796558      652.9070881946969
0.028775972377325904      652.9041760045224
0.028987591331333325      652.880555100347
0.029199514209569403      652.8362254821712
0.02944342851784522       652.6526643318072
0.02968687930793418       652.4263194334824
0.02993005164788383       652.1571907871971
0.030173131241734534      651.8452783929514
0.0304163040060093        651.4905822507453
0.0306597556437771        651.0931023605783
0.030903671221153783      650.652838722451
0.031163203382828072      650.0252665464023
0.03142217899245488       649.3522001328395
0.03168082010415685       648.633639481762
0.03193934963397098       647.8695845931702
0.032197990786442934      647.0600354670643
0.03245696647750436       646.2049921034437
0.032716498761068635      645.3044545023089
0.03299306118333142       644.1691340087933
0.03326895162351545       643.0127927176228
0.03354443814161999       641.8354306287972
0.03381978997732317       640.6370477423168
0.034095276765188226      639.4176440581816
0.03437116774410313       638.1772195763913
0.03464773097249833       636.9157742969462
0.034924294202460265      635.5823762300676
0.03520018518292322       634.2693262659523
0.03547567197232456       632.9766244045999
0.035751023809559274      631.7042706460106
0.036026510329197556      630.4522649901851
0.036302400770924524      629.2206074371221
0.03657896319474637       628.0092979868226
0.036838495506703706      626.8717014555235
0.03709747122597688       625.7875989381573
0.037356112406552636      624.7569904347235
0.03761464196443644       623.7798759452224
0.03787328310424792       622.8562554696545
0.03813225874209787       621.9861290080187
0.03839179093218227       621.1694965603159
0.03863570546763781       620.4317415510151
0.038879157791710306      619.7594331032826
0.03912233240906017       619.1525712171184
0.03936541445670531       618.6111558925224
0.039608589283092806      618.1351871294953
0.039852042024763494      617.7246649280358
0.04009595718542905       617.3795892881451
0.040307879631580334      617.1156887863807
0.04051949849477797       616.9041481210503
0.0407309350144797        616.7449672921535
0.040942310743905544      616.6381462996909
0.04115374734111909       616.5836851436621
0.04136536635920676       616.5815838240671
0.04157728903736024       616.6318423409062
0.04178920745215007       616.7405250985943
0.042000823426259694      616.8999735136704
0.042212258026551035      617.1101875861345
0.04242363263153709       617.3711673159869
0.0426350687230549        617.6829127032277
0.042846687677050764      618.0454237478561
0.04305861055527523       618.4587004498729
0.04330252486354604       618.9618897329626
0.043545975653630026      619.5338816964875
0.04378914799357473       620.1746763404473
0.044032227587420474      620.8842736648422
0.04427540035169028       621.6626736696726
0.04451885198945311       622.5098763549378
0.044762767566824783      623.4258817206382
0.045022299728516735      624.4314770575833
0.04528127533816108       625.4843573031657
0.045539916449880535      626.5845224573851
0.045798445979712124      627.7319725202419
0.046057087132201545      628.9267074917362
0.04631606282328052       630.1687273718676
0.046575595106862454      631.4580321606364
0.04685215752913061       632.831810073733
0.04712804796931999       634.2286910170887
0.04740353448742985       635.6486749907035
0.04767888632313835       637.0917619945774
0.04795437311100872       638.5579520287107
0.048230264089928976      640.0472450931027
0.048506827318329566      641.5596411877541
0.04878339054829114       642.9932209295624
0.049059281528753745      644.4055265498522
0.04933476831815475       645.7965580486235
0.0496101201553891        647.1663154258763
0.04988560667502701       648.5147986816107
0.05016149711675364       649.8420078158263
0.050438059540575134      651.1479428285235
0.05069759185254397       652.2022538392965
0.05095656757182859       653.2089424074168
0.05121520875241573       654.1680085328835
0.05147373831031092       655.0794522156971
0.051732379450133786      655.9432734558578
0.05199135508799517       656.7594722533651
0.05225088727809108       657.5280486082193
0.0524948018135407        658.1298623215487
0.052738254137607306      658.6718502832911
0.05298142875495131       659.1540124934462
0.05322451080259058       659.5763489520142
0.0534676856289722        659.9388596589954
0.05371113837063701       660.2415446143891
0.05395505353129665       660.4844038181959
0.05416697597743634       660.6269251121843
0.054378594840622414      660.7263080889778
0.05459003136031263       660.782552748577
0.05480140708972696       660.7956590909815
0.05501284368692898       660.7656271161916
0.0552244627050051        660.6924568242067
0.05543638538314697       660.5761482150275
