% Model:              brazing.mph
% Version:            COMSOL 5.3.0.223
% Date:               Oct 24 2018, 06:16
% Dimension:          1
% Nodes:              161
% Expressions:        1
% Description:        Line graph
% x                       Height
0                         650.8195489022638
1.9693985890610136E-4     650.7901017133179
3.9298030043864816E-4     650.7709729806161
5.884188308682271E-4      650.7621627041591
7.835557095112735E-4      650.7636708839462
9.786925881542028E-4      650.7754975199779
0.0011741311185834375     650.7976426122539
0.0013701715601154056     650.8301061607742
0.0015671114190207022     650.872888165539
0.0017642608961497635     650.6332067139166
0.0019605081241513326     650.3887245115278
0.0021561515411346144     650.1394415583726
0.002351492352702621      649.885357854451
0.0025468331642698894     649.626473399763
0.0027424765812509564     649.3627881943083
0.0029387238092488436     649.0943022380875
0.0031358732863727766     648.8210155311001
0.0033326885608882563     648.4472865026902
0.0035286060983021257     648.0779181493433
0.0037239228519497995     647.7129104710589
0.003918938519653848      647.3522634678375
0.004113954187357973      646.9959771396789
0.004309270941005876      646.6440514865831
0.004505188478420127      646.2964865085501
0.004702003752936137      645.9532822055799
0.004899138702461749      645.5992779932914
0.005095371599302965      645.2618573768239
0.005291000816927052      644.9410203561773
0.005486327495291825      644.6367669313519
0.005681654173656831      644.3490971023474
0.0058772833912816074     644.0780108691639
0.0060735162881239745     643.8235082318013
0.006270651237651189      643.5855891902597
0.006467582778148322      643.4049801610129
0.006663615013526554      643.2580725900431
0.006859045413116663      643.1448664773502
0.0070541741987231454     643.0653618229345
0.007249302984329781      643.0195586267959
0.007444733383920351      643.007456888934
0.007640765619299351      643.0290566093494
0.007837697159797551      643.0843577880418
0.008034634474091872      643.0819108630945
0.008230672405352359      643.1172760353834
0.008426108448549354      643.1904533049081
0.008621242851524007      643.3014426716688
0.008816377254498534      643.4502441356655
0.009011813297695145      643.636857696898
0.009207851228955002      643.8612833553665
0.00940478854324844       644.123521111071
0.00960192671152544       644.4486220831828
0.00979816278359587       644.7885946764743
0.009993795147248338      645.1434388909457
0.010189124956984269      645.5131547265968
0.010384454766719743      645.8977421834277
0.010580087130370853      646.2972012614382
0.010776323202439026      646.7115319606285
0.01097346137071288       647.1407342809986
0.011170281912174305      647.5272090831384
0.011366204645540166      647.9229596030956
0.011561526547508357      648.3279858408704
0.011756547339625332      648.7422877964626
0.011951568131742307      649.1658654698723
0.0121468900337105        649.5987188610995
0.012342812767076368      650.0408479701442
0.0125396333085378        650.4922527970065
0.012736771215691979      650.790692894954
0.012933007030171178      651.0863613251721
0.013128639138602195      651.3792580876612
0.013323968694306592      651.669383182421
0.013519298250011432      651.9567366094516
0.013714930358443784      652.2413183687529
0.0139111661729252        652.523128460325
0.014108304080082462      652.8021668841677
0.014305241249097643      652.7996925040019
0.014501279037039759      652.7993539094153
0.014696714938233999      652.8011511004084
0.014891849199866372      652.805084076981
0.015086983461498874      652.811152839133
0.015282419362693495      652.8193573868646
0.01547845715063625       652.8296977201755
0.015675394319652317      652.842173839066
0.015872325504405583      652.4616815043561
0.01606835738884011       652.08540218398
0.016263787440706973      651.7133358779378
0.016458915880206496      651.3454825862295
0.016654044319705866      650.9818423088551
0.016849474371572262      650.6224150458146
0.017045506256006017      650.267200797108
0.017242437440758204      649.9161995627352
0.01743957168037589       649.3396552459947
0.017635803876907424      648.7524855905765
0.01783143240066149       648.1546905964803
0.018026758388388308      647.5462702637066
0.01822208437611492       646.9272245922549
0.01841771289986836       646.2975535821256
0.018613945096398854      645.6572572333184
0.018811079336015085      645.0063355458336
0.019007894687321662      644.3209219940077
0.01920381230049143       643.6373989721619
0.019399129129200405      642.9557664802961
0.01959414487161704       642.2760245184104
0.01978916061403359       641.5981730865047
0.01998447744274231       640.922212184579
0.020180395055911654      640.2481418126335
0.020377210407217645      639.5759619706681
0.020574360469106157      638.9716315528028
0.020770608273960874      638.3887772566846
0.020966252262493188      637.8273990823142
0.021161593642948652      637.2874970296908
0.021356935023404883      636.7690710988148
0.021552579011939476      636.2721212896861
0.021748826816797996      635.7966476023048
0.021945976878691802      635.3426500366708
0.022142917141692885      634.9956027137896
0.022338957981867254      634.6936048998797
0.022534396907280062      634.4366565949415
0.02272953417907009       634.2247577989746
0.02292467145086023       634.0579085119791
0.02312011037627338       633.9361087339553
0.02331615121644832       633.8593584649028
0.023513091479450195      633.8276577048218
0.023710025135207962      633.7575617140479
0.02390605945730262       633.7378409483604
0.024101491924457957      633.7684954077591
0.024296622768016963      633.8495250922442
0.024491753611575823      633.9809300018156
0.02468718607873073       634.1627101364733
0.024883220400824673      634.3948654962171
0.025080154056581445      634.6773960810474
0.025277299572591536      635.0737470473764
0.025473542893039384      635.4920575131579
0.02566918243840792       635.9323274783917
0.025864519396400307      636.3945569430778
0.026059856354392216      636.8787459072161
0.026255495899759323      637.3848943708068
0.026451739220204794      637.9130023338497
0.026648884736211575      638.4630697963449
0.02684569473774919       639.0647639517834
0.027041607073256636      639.6719080727756
0.027236918672681274      640.2845021593215
0.027431929210095855      640.9025462114209
0.027626939747510428      641.526040229074
0.027822251346935042      642.1549842122807
0.028018163682442445      642.7893781610411
0.028214973683980002      643.4292220753551
0.028412120943583204      644.0425766265571
0.028608365984047285      644.6437356073257
0.02880400723361381       645.232699017661
0.02899934588786498       645.809466857563
0.02919468454211669       646.3740391270319
0.029390325791684838      646.9264158260673
0.02958657083215161       647.4665969546696
0.029783718091758563      647.9945825128386
0.029980652759780888      648.3506538434507
0.030176688080480362      648.7058821649388
0.030372121537075924      649.0602674773029
0.03056725336547531       649.4138097805429
0.030762385193874833      649.7665090746591
0.030957818650470807      650.1183653596512
0.031153853971170976      650.4693786355195
0.031350788639194264      650.8195489022638
