% Model:              brazing.mph
% Version:            COMSOL 5.3.0.223
% Date:               Oct 24 2018, 04:18
% Dimension:          1
% Nodes:              225
% Expressions:        1
% Description:        Line graph
% x                       Height
0                         656.5889900206256
2.1191841480136804E-4     656.4972719784577
4.2353438892247565E-4     656.3661051530642
6.349689892252786E-4      656.1954895444449
8.463435942227858E-4      655.9854251526003
0.001057779685752053      655.7359119775305
0.001269398639759412      655.4469500192347
0.001481321517995422      655.1185392777137
0.0017252358262731596     654.6803648555376
0.0019686866163640313     654.210561060846
0.0022118589563155885     653.7091278936387
0.002454938550168189      653.1760653539158
0.0026981113144448556     652.6113734416775
0.0029415629522145732     652.0150521569233
0.0031854785295931678     651.3871014996537
0.0034450106912723537     650.6157187761476
0.0037039863009040125     649.8121269059798
0.003962627412610827      648.9763258891496
0.0042211569424298        648.1083157256577
0.004479798094906585      647.2080964155042
0.004738773785972872      646.2756679586882
0.004998306069542035      645.3110303552106
0.005274868491808245      644.1844873288188
0.005550758931995686      643.0402807479051
0.0058262454501036105     641.8784106124693
0.006101597285810183      640.6988769225117
0.006377084073678616      639.5016796780325
0.006652975052596927      638.286818879031
0.006929538280995558      637.0542945255078
0.007206101510950518      635.7782643861354
0.007481992491406557      634.5194731337399
0.007757479280801014      633.2779207683211
0.00803283111802884       632.0536072898792
0.008308317637660222      630.8465326984144
0.008584208079380276      629.656696993926
0.008860770503195153      628.4841001764146
0.009120302815147717      627.3842747279092
0.00937927853441616       626.3260851146717
0.009637919714987194      625.3095313367018
0.009896449272866283      624.3346133939995
0.010155090412673047      623.4013312865652
0.010414066050518256      622.5096850143984
0.01067359824059789       621.6596745774995
0.010917512776055054      620.8857046782667
0.011160965100129169      620.1637079718637
0.011404139717480647      619.4936844582899
0.01164722176512739       618.8756341375458
0.011890396591516505      618.3095570096315
0.012133849333188814      617.7954530745465
0.012377764493855997      617.3333223322911
0.01258968694000722       616.9745656038015
0.012801305803204788      616.657316430008
0.013012742322906452      616.3815748109104
0.013224118052332232      616.1473407465088
0.01343555464954572       615.9546142368035
0.013647173667633327      615.803395281794
0.013859096345786744      615.6936838814805
0.014071014760598048      615.6418401450171
0.014282630734729056      615.6306587121645
0.01449406533504172       615.6601395829225
0.014705439940049088      615.7302827572911
0.014916876031588231      615.8410882352705
0.015128494985605482      615.9925560168602
0.015340417863851432      616.1846861020608
0.01558433217214941       616.4240565592474
0.015827782962260412      616.7231170621726
0.016070955302232025      617.0818676108363
0.016314034896104664      617.5003082052384
0.0165572076604014        617.9784388453794
0.01680065929819124       618.5162595312586
0.01704457487559009       619.1137702628765
0.01730410703726679       619.7666912364784
0.017563082646895985      620.4606115313553
0.01782172375860034       621.195531147507
0.018080253288416847      621.9714500849338
0.01833889444089119       622.788368343636
0.018597870131955005      623.6462859236127
0.018857402415521692      624.5452028248646
0.019133964837753384      625.5114738894721
0.019409855277906563      626.4965079734582
0.019685341795980367      627.5003050768225
0.019960693631652874      628.5228651995658
0.0202361804194872        629.5641883416878
0.020512071398371242      630.6242745031881
0.020788634626735362      631.7031236840671
0.02106519785666259       632.7571747263029
0.021341088837091095      633.7993120810529
0.021616575626458134      634.8295357483171
0.02189192746365859       635.8478457280954
0.022167413983262562      636.8542420203883
0.02244330442495508       637.8487246251949
0.022719866848742224      638.831293542516
0.022979399160698737      639.6578928063823
0.023238374879971102      640.4623707613475
0.023497016060546046      641.2447274074117
0.023755545618429033      642.0049627445749
0.02401418675823971       642.7430767728374
0.024273162396088833      643.4590694921984
0.024532694586172417      644.1529409026587
0.02477660912165014       644.7300736688103
0.02502006144574469       645.2741798722354
0.025263236063116538      645.785259512934
0.025506318110783622      646.263312590906
0.025749492937193107      646.7083391061517
0.02599294567888585       647.1203390586707
0.026236860839573585      647.4993124484633
0.026448783285734738      647.7747972542282
0.02666040214894219       648.0316763134501
0.026871838668653707      648.2699496261284
0.027083214398089334      648.4896171922636
0.027294650995312687      648.6906790118559
0.027506270013410168      648.8731350849044
0.02771819269157351       649.0369854114101
0.02793011110637494       649.112856406148
0.028141727080496122      649.1686064553191
0.028353161680798985      649.2042355589234
0.028564536285796558      649.2197437169608
0.028775972377325904      649.2151309294317
0.028987591331333325      649.1903971963355
0.029199514209569403      649.1455425176727
0.02944342851784522       648.9624651290403
0.02968687930793418       648.7372894877243
0.02993005164788383       648.4700155937246
0.030173131241734534      648.1606434470414
0.0304163040060093        647.8091730476748
0.0306597556437771        647.4156043956243
0.030903671221153783      646.9799374908904
0.031163203382828072      646.3583158239979
0.03142217899245488       645.6918799991836
0.03168082010415685       644.980630016447
0.03193934963397098       644.2245658757886
0.032197990786442934      643.4236875772086
0.03245696647750436       642.5779951207061
0.032716498761068635      641.687488506282
0.03299306118333142       640.5642198656848
0.03326895162351545       639.4202862727933
0.03354443814161999       638.2556877276073
0.03381978997732317       637.0704242301268
0.034095276765188226      635.8644957803524
0.03437116774410313       634.6379023782831
0.03464773097249833       633.3906440239197
0.034924294202460265      632.072232808266
0.03520018518292322       630.7740079296515
0.03547567197232456       629.495969388076
0.035751023809559274      628.2381171835398
0.036026510329197556      627.000451316043
0.036302400770924524      625.782971785585
0.03657896319474637       624.5856785921663
0.036838495506703706      623.4609636603634
0.03709747122597688       622.3891198901257
0.037356112406552636      621.3701472814529
0.03761464196443644       620.4040458343451
0.03787328310424792       619.4908155488027
0.03813225874209787       618.630456424825
0.03839179093218227       617.8229684624125
0.03863570546763781       617.0930242131776
0.038879157791710306      616.4276645527201
0.03912233240906017       615.8268894810401
0.03936541445670531       615.2906989981374
0.039608589283092806      614.8190931040124
0.039852042024763494      614.4120717986647
0.04009595718542905       614.0696350820945
0.040307879631580334      613.807323757786
0.04051949849477797       613.5966147424167
0.0407309350144797        613.4375080359863
0.040942310743905544      613.3300036384952
0.04115374734111909       613.2741015499433
0.04136536635920676       613.2698017703303
0.04157728903736024       613.3171042996565
0.04178920745215007       613.4220288826073
0.042000823426259694      613.5769859195061
0.042212258026551035      613.7819754103527
0.04242363263153709       614.0369973551474
0.0426350687230549        614.3420517538904
0.042846687677050764      614.6971386065808
0.04305861055527523       615.1022579132195
0.04330252486354604       615.5950393367866
0.043545975653630026      616.155837050674
0.04378914799357473       616.7846510548819
0.044032227587420474      617.4814813494105
0.04427540035169028       618.2463279342595
0.04451885198945311       619.0791908094288
0.044762767566824783      619.9800699749188
0.045022299728516735      620.968770806331
0.04528127533816108       622.0041592469081
0.045539916449880535      623.08623529665
0.045798445979712124      624.2149989555567
0.046057087132201545      625.3904502236285
0.04631606282328052       626.6125891008647
0.046575595106862454      627.881415587266
0.04685215752913061       629.233405356286
0.04712804796931999       630.6083783193076
0.04740353448742985       632.0063344763306
0.04767888632313835       633.4272738273554
0.04795437311100872       634.8711963723821
0.048230264089928976      636.33810211141
0.048506827318329566      637.8279910444397
0.04878339054829114       639.2406863728233
0.049059281528753745      640.6326107138092
0.04933476831815475       642.003764067397
0.0496101201553891        643.354146433587
0.04988560667502701       644.6837578123792
0.05016149711675364       645.9925982037731
0.050438059540575134      647.2806676077694
0.05069759185254397       648.3196298352457
0.05095656757182859       649.3118673511167
0.05121520875241573       650.2573801553823
0.05147373831031092       651.1561682480426
0.051732379450133786      652.0082316290978
0.05199135508799517       652.8135702985475
0.05225088727809108       653.5721842563919
0.0524948018135407        654.1657832852128
0.052738254137607306      654.7005000870104
0.05298142875495131       655.1763346617842
0.05322451080259058       655.5932870095348
0.0534676856289722        655.9513571302621
0.05371113837063701       656.2505450239656
0.05395505353129665       656.4908506906459
0.05416697597743634       656.6318357650725
0.054378594840622414      656.7304991161182
0.05459003136031263       656.7868407437821
0.05480140708972696       656.8008606480649
0.05501284368692898       656.7725588289667
0.0552244627050051        656.7019352864867
0.05543638538314697       656.5889900206256
