% Model:              brazing.mph
% Version:            COMSOL 5.3.0.223
% Date:               Oct 24 2018, 05:40
% Dimension:          1
% Nodes:              225
% Expressions:        1
% Description:        Line graph
% x                       Height
0                         706.2614024827924
2.02242572596226E-4       706.2411190875291
4.040113375593453E-4      706.1571557530712
6.054635867748898E-4      706.0095124794187
8.067573541103817E-4      705.7981892665715
0.0010080510467017985     705.5231861145296
0.001209503071861434      705.1845030232931
0.0014112714639836859     704.7821399928621
0.001613513515825394      704.3160970232362
0.001815803045808458      703.8890515393177
0.0020176184164428694     703.4150607183084
0.0022191170764546647     702.8941245602083
0.0024204572175778446     702.3262430650175
0.00262179740518867       701.7114162327358
0.002823296204553664      701.0496440633634
0.0030251118070788686     700.3409265569002
0.003227401660948015      699.5852637133462
0.0034297372965816655     698.8507559024937
0.003631598594156443      698.0791501281223
0.0038331430353414214     697.2704463902318
0.004034528845142556      696.4246446888225
0.004235914622467191      695.5417450238942
0.004437458966299354      694.621747395447
0.004639320101874085      693.6646518034809
0.004841655511239337      692.6704582479956
0.005043918276497792      691.7556753410456
0.005245706959792293      690.8291946420251
0.0054471789681153834     689.8910161509341
0.00564849245128538       688.9411398677727
0.005849805932728159      687.9795657925407
0.006051277935873691      687.0062939252383
0.00625306661055245       686.0213242658655
0.006455329363777148      685.0246568144222
0.0066576887471433525     684.0594844531958
0.0068595736811967985     683.1137076616425
0.007061141707903535      682.1873264397623
0.007262551112883539      681.2803407875554
0.007463960555734714      680.3927507050215
0.007665528695965537      679.5245561921607
0.00786741381892875       678.6757572489731
0.0080697734661485        677.8463538754589
0.008272395437950266      677.0975633128289
0.008474540847339949      676.3734920564907
0.008676367906616744      675.6741401064444
0.008878035577337231      674.9995074626901
0.009079703197965442      674.3495941252277
0.009281530107084053      673.7244000940568
0.00948367526660416       673.1239253691781
0.009686296889411194      672.5481699505913
0.009888748367913874      672.1754253414086
0.010090724718905934      671.8428532065216
0.010292383720552634      671.5504535459298
0.010493883896490891      671.2982263596335
0.010695384145210549      671.0861716476327
0.010897043365029401      670.9142894099273
0.011099020079070253      670.7825796465174
0.011301472064648224      670.691042357403
0.011503924099142101      670.7037527410513
0.011705900863193036      670.757674879018
0.011907560133099505      670.8528087713034
0.012109060430962503      670.9891544179075
0.012310560654077738      671.16671181883
0.012512219699917606      671.3854809740712
0.012714196091111104      671.6454618836308
0.012916647604829811      671.9466545475093
0.013119269382981878      672.397375702716
0.013321414683399362      672.8809030315568
0.013523241722808088      673.3972365340317
0.013724909467002238      673.9463762101406
0.013926577258472442      674.5283220598836
0.014128404439597363      675.1430740832608
0.014330549975836581      675.7906322802718
0.01453317208336263       676.4709966509171
0.014735531766219815      677.2219057540689
0.014937416940401616      677.9862254825241
0.015138985143475461      678.7639558362828
0.015340394656791169      679.5550968153449
0.015541804135826716      680.3596484197104
0.015743372236141022      681.1776106493796
0.015945257239325793      682.0089835043522
0.01614761668334845       682.8537669846281
0.01634987940592303       683.8110129900201
0.016551668047823844      684.755391519263
0.016753140015983766      685.6869025723564
0.0169544534601584        686.6055461493008
0.017155766903708087      687.511322250096
0.017357238869994664      688.404230874742
0.017559027508778132      689.2842720232387
0.01776129022699866       690.1514456955863
0.017963625484858744      691.0470946484193
0.018165486461237414      691.9173641527792
0.018367030641941378      692.7622542086663
0.018568416255992027      693.5817648160803
0.018769801906169285      694.3758959750213
0.018971346195167795      695.1446476854893
0.019173207351754082      695.8880199474844
0.019375542861313405      696.6060127610064
0.019577832661189145      697.3421913044576
0.019779648217873542      698.0259473521866
0.019981146975907166      698.6572809041928
0.020182487123025287      699.2361919604766
0.020383827220813066      699.762680521038
0.020585325830972126      700.2367465858766
0.020787141141585735      700.658390154993
0.020989430597769934      701.0276112283868
0.021191672662378012      701.4904661952783
0.021393441061935803      701.8892290660167
0.02159489309031221       702.2238998406021
0.021796186783028852      702.4944785190345
0.021997480548535182      702.700965101314
0.022198932795108938      702.8433595874401
0.022400701557758636      702.9216619774135
0.02260294412950465       702.9358722712337
0.02280539620920995       702.9949252275227
0.023007373018156245      702.9873806865972
0.02320903233274668       702.9132386484574
0.023410532675187733      702.7724991131034
0.023612032942881025      702.5651620805351
0.023813692033404853      702.2912275507524
0.024015668469493705      701.9506955237554
0.024218120028423832      701.5435659995441
0.024420742013481003      701.1478324002935
0.02462288751935683       700.6969295520101
0.02482471476325633       700.1908574546942
0.02502638271145666       699.6296161083453
0.025228050706933344      699.0132055129636
0.025429878092549915      698.3416256685493
0.025632023834248962      697.614876575102
0.025834646148682177      696.8329582326222
0.026037006051731277      696.0467631322571
0.026238891444565628      695.2193435214606
0.02644045986526205       694.3506994002325
0.026641869595683754      693.440830768573
0.02684327929182417       692.4897376264822
0.027044847609757647      691.4974199739598
0.02724673283158932       690.463877811006
0.027449092495796006      689.389111137621
0.02765135518998453       688.3374733146345
0.027853143803698084      687.2766733655823
0.028054615743803996      686.2067112904643
0.028255929159991804      685.1275870892806
0.028457242575555555      684.0393007620311
0.028658714513790734      682.9418523087157
0.028860503124391312      681.8352417293348
0.029062765814231884      680.719469023888
0.029265100752448706      679.6113610176744
0.02946696141141544       678.5291041458905
0.029668505276199596      677.4726984085362
0.029869890575077548      676.4421438056113
0.03007127591008127       675.437440337116
0.030272819883157453      674.4585880030503
0.03047468072232762       673.5055868034142
0.030677015912237836      672.5784367382076
0.030879305594778746      671.7279383285778
0.03108112103494649       670.9158018042828
0.031282619677010744      670.1420271653225
0.03148395970843373       669.4066144116971
0.0316852996905265        668.7095635434064
0.031886798184716555      668.0508745604506
0.032088613378814135      667.4305474628295
0.03229090271766436       666.8485822505432
0.03249314477533616       666.4522173463102
0.03269491316800606       666.111755892802
0.03289636518952694       665.8271978900186
0.03309765887540427       665.5985433379599
0.033298952634071295      665.4257922366261
0.033500404873789524      665.3089445860169
0.03370217362955133       665.2480003861325
0.03390441619436107       665.2429596369728
0.03410686840969767       665.344425842696
0.03430884535332711       665.5021312227001
0.0345105048019665        665.716075776985
0.034712005278138794      665.986259505551
0.03491350567956333       666.3126824083978
0.03511516490413611       666.6953444855257
0.035317141474908095      667.1342457369343
0.03551959316946952       667.629386162624
0.035722216260139425      668.2692848521767
0.03592436286389621       668.9522346700844
0.036126191200505704      669.6782356163473
0.03632786023882611       670.4472876909649
0.03652952932442421       671.2593908939376
0.036731357802754806      672.1145452252651
0.03693350464234149       673.012750684948
0.03713612806239678       673.9540072729856
0.03733848789969145       674.9586564221727
0.037540373227224554      675.9843456921718
0.03774194158292153       677.0310750829827
0.03794335124849304       678.0988445946056
0.03814476087977932       679.1876542270403
0.03834632913270157       680.297503980287
0.03854821428921239       681.4283938543455
0.038750573887637245      682.5803238492161
0.03895283596123875       683.7978125591293
0.039154623958694366      685.0015406484674
0.039356095285438375      686.1915081172305
0.03955740808971597       687.3677149654186
0.03975872089337115       688.5301611930317
0.03996019221824938       689.6788468000698
0.04016198021260023       690.8137717865327
0.04036424228186526       691.9349361524207
0.040566577948397485      693.0435973005945
0.040768439330593605      694.1162175462038
0.04096998391520435       695.1527968892485
0.04117136993220262       696.153335329729
0.04137275598532357       697.1178328676448
0.04157430067821714       698.0462895029964
0.04177616224060133       698.9387052357835
0.0419784981588055        699.795080066006
0.04218078754816035       700.6332824636071
0.04238260269718259       701.4078377515369
0.04258410104946696       702.1187459297953
0.04278544079179545       702.7660069983824
0.04298678048479618       703.3496209572982
0.043188278689213704      703.8695878065425
0.043390093592177985      704.3259075461156
0.04359238263785921       704.7185801760173
0.043794623705544454      705.1543396287118
0.04399639111513442       705.5206971773069
0.04419784215819482       705.8176528218028
0.04439913486792596       706.0452065621994
0.044600427650446826      706.2033583984966
0.04480187891170468       706.2921083306944
0.045003646684386715      706.3114563587932
0.04520588825921017       706.2614024827924
