% Model:              brazing.mph
% Version:            COMSOL 5.3.0.223
% Date:               Oct 24 2018, 04:51
% Dimension:          1
% Nodes:              225
% Expressions:        1
% Description:        Line graph
% x                       Height
0                         680.1221881666015
2.02242572596226E-4       680.1119449380717
4.040113375593453E-4      680.0389606891707
6.054635867748898E-4      679.9032354198987
8.067573541103817E-4      679.7047691302555
0.0010080510467017985     679.4435618202413
0.001209503071861434      679.119613489856
0.0014112714639836859     678.7329241390994
0.001613513515825394      678.2834937679719
0.001815803045808458      677.8807622405242
0.0020176184164428694     677.4318089797738
0.0022191170764546647     676.9366339857207
0.0024204572175778446     676.395237258365
0.00262179740518867       675.8076187977066
0.002823296204553664      675.1737786037453
0.0030251118070788686     674.4937166764815
0.003227401660948015      673.767433015915
0.0034297372965816655     673.0620198718042
0.003631598594156443      672.319983862725
0.0038331430353414214     671.5413249886777
0.004034528845142556      670.7260432496621
0.004235914622467191      669.8741386456783
0.004437458966299354      668.9856111767259
0.004639320101874085      668.0604608428056
0.004841655511239337      667.0986876439168
0.005043918276497792      666.2195989643659
0.005245706959792293      665.328522653979
0.0054471789681153834     664.4254587127562
0.00564849245128538       663.5104071406976
0.005849805932728159      662.583367937803
0.006051277935873691      661.6443411040725
0.00625306661055245       660.693326639506
0.006455329363777148      659.7303245441038
0.0066576887471433525     658.7969546179976
0.0068595736811967985     657.8818449038976
0.007061141707903535      656.9849954018039
0.007262551112883539      656.1064061117165
0.007463960555734714      655.2460770336354
0.007665528695965537      654.4040081675605
0.00786741381892875       653.5801995134918
0.0080697734661485        652.7746510714295
0.008272395437950266      652.0491701115029
0.008474540847339949      651.3464241515319
0.008676367906616744      650.6664131915164
0.008878035577337231      650.0091372314565
0.009079703197965442      649.3745962713522
0.009281530107084053      648.7627903112035
0.00948367526660416       648.1737193510102
0.009686296889411194      647.6073833907724
0.009888748367913874      647.2437519408502
0.010090724718905934      646.9179858321039
0.010292383720552634      646.6300850645333
0.010493883896490891      646.3800496381386
0.010695384145210549      646.1678795529198
0.010897043365029401      645.9935748088767
0.011099020079070253      645.8571354060095
0.011301472064648224      645.7585613443181
0.011503924099142101      645.7619505110298
0.011705900863193036      645.8043653628023
0.011907560133099505      645.8858058996352
0.012109060430962503      646.0062721215287
0.012310560654077738      646.1657640284828
0.012512219699917606      646.3642816204975
0.012714196091111104      646.6018248975728
0.012916647604829811      646.8783938597087
0.013119269382981878      647.3037300830346
0.013321414683399362      647.7601653083548
0.013523241722808088      648.2476995356697
0.013724909467002238      648.7663327649788
0.013926577258472442      649.3160649962824
0.014128404439597363      649.8968962295803
0.014330549975836581      650.5088264648729
0.01453317208336263       651.1518557021597
0.014735531766219815      651.8636530303278
0.014937416940401616      652.5879340405817
0.015138985143475461      653.3246987329213
0.015340394656791169      654.0739471073467
0.015541804135826716      654.835679163858
0.015743372236141022      655.6098949024549
0.015945257239325793      656.3965943231377
0.01614761668334845       657.1957774259063
0.01634987940592303       658.1092383487592
0.016551668047823844      659.0100391933013
0.016753140015983766      659.8981799595326
0.0169544534601584        660.7736606474531
0.017155766903708087      661.6364812570628
0.017357238869994664      662.4866417883617
0.017559027508778132      663.3241422413497
0.01776129022699866       664.148982616027
0.017963625484858744      665.0011732974316
0.018165486461237414      665.8289459798967
0.018367030641941378      666.6323006634223
0.018568416255992027      667.4112373480084
0.018769801906169285      668.1657560336552
0.018971346195167795      668.8958567203623
0.019173207351754082      669.60153940813
0.019375542861313405      670.2828040969582
0.019577832661189145      670.9844921621342
0.019779648217873542      671.6345948520883
0.019981146975907166      672.2331121668203
0.020182487123025287      672.7800441063304
0.020383827220813066      673.2753906706183
0.020585325830972126      673.7191518596844
0.020787141141585735      674.1113276735285
0.020989430597769934      674.4519181121507
0.021191672662378012      674.8960649385986
0.021393441061935803      675.2773243894613
0.02159489309031221       675.5956964647391
0.021796186783028852      675.8511811644319
0.021997480548535182      676.0437784885396
0.022198932795108938      676.1734884370621
0.022400701557758636      676.2403110099997
0.02260294412950465       676.2442462073524
0.02280539620920995       676.2940613820709
0.023007373018156245      676.2786938285125
0.02320903233274668       676.1981435466769
0.023410532675187733      676.0524105365643
0.023612032942881025      675.8414947981746
0.023813692033404853      675.5653963315079
0.024015668469493705      675.224115136564
0.024218120028423832      674.8176512133431
0.024420742013481003      674.4329345425017
0.02462288751935683       673.9950065587627
0.02482471476325633       673.5038672621263
0.02502638271145666       672.9595166525922
0.025228050706933344      672.3619547301607
0.025429878092549915      671.7111814948317
0.025632023834248962      671.0071969466051
0.025834646148682177      670.2500010854809
0.026037006051731277      669.4897881474978
0.026238891444565628      668.689660491325
0.02644045986526205       667.849618116962
0.026641869595683754      666.9696610244092
0.02684327929182417       666.0497892136666
0.027044847609757647      665.0900026847339
0.02724673283158932       664.0903014376113
0.027449092495796006      663.0506854722989
0.02765135518998453       662.040013952677
0.027853143803698084      661.0207028944865
0.028054615743803996      659.9927522977272
0.028255929159991804      658.9561621623993
0.028457242575555555      657.9109324885028
0.028658714513790734      656.8570632760376
0.028860503124391312      655.7945545250037
0.029062765814231884      654.7234062354012
0.029265100752448706      653.6583127868938
0.02946696141141544       652.6184546976506
0.029668505276199596      651.6038319676715
0.029869890575077548      650.6144445969563
0.03007127591008127       649.6502925855054
0.030272819883157453      648.7113759333184
0.03047468072232762       647.7976946403959
0.030677015912237836      646.9092487067373
0.030879305594778746      646.0967770305095
0.03108112103494649       645.3209777773557
0.031282619677010744      644.5818509472757
0.03148395970843373       643.8793965402697
0.0316852996905265        643.2136145563376
0.031886798184716555      642.5845049954793
0.032088613378814135      641.9920678576949
0.03229090271766436       641.4363031429845
0.03249314477533616       641.0652915184825
0.03269491316800606       640.7479262856077
0.03289636518952694       640.4842074443602
0.03309765887540427       640.2741349947398
0.033298952634071295      640.1177089367466
0.033500404873789524      640.0149292703807
0.03370217362955133       639.9657959956418
0.03390441619436107       639.9703091125301
0.03410686840969767       640.0787884773721
0.03430884535332711       640.241243074031
0.0345105048019665        640.4576729025068
0.034712005278138794      640.7280779627996
0.03491350567956333       641.0524582549093
0.03511516490413611       641.4308137788361
0.035317141474908095      641.8631445345795
0.03551959316946952       642.3494505221402
0.035722216260139425      642.9786961556031
0.03592436286389621       643.6492038478364
0.036126191200505704      644.3609735988399
0.03632786023882611       645.1140054086137
0.03652952932442421       645.9082992771579
0.036731357802754806      646.7438552044724
0.03693350464234149       647.6206731905572
0.03713612806239678       648.5387532354123
0.03733848789969145       649.5186299409153
0.037540373227224554      650.5184784805701
0.03774194158292153       651.5382988543771
0.03794335124849304       652.5780910623361
0.03814476087977932       653.637855104447
0.03834632913270157       654.71759098071
0.03854821428921239       655.8172986911251
0.038750573887637245      656.9369782356921
0.03895283596123875       658.1237617134235
0.039154623958694366      659.2970923429226
0.039356095285438375      660.4569701241895
0.03955740808971597       661.6033950572241
0.03975872089337115       662.7363671420266
0.03996019221824938       663.8558863785968
0.04016198021260023       664.9619527669348
0.04036424228186526       666.0545663070405
0.040566577948397485      667.1339544811365
0.040768439330593605      668.1786097176232
0.04096998391520435       669.188532016501
0.04117136993220262       670.1637213777695
0.04137275598532357       671.104177801429
0.04157430067821714       672.0099012874797
0.04177616224060133       672.880891835921
0.0419784981588055        673.7171494467533
0.04218078754816035       674.5378936970384
0.04238260269718259       675.2962164238845
0.04258410104946696       675.9921176272918
0.04278544079179545       676.6255973072601
0.04298678048479618       677.1966554637894
0.043188278689213704      677.7052920968799
0.043390093592177985      678.1515072065314
0.04359238263785921       678.5353007927442
0.043794623705544454      678.9729450501865
0.04399639111513442       679.3422226402831
0.04419784215819482       679.6431335630339
0.04439913486792596       679.8756778184389
0.044600427650446826      680.0398554064981
0.04480187891170468       680.1356663272117
0.045003646684386715      680.1631105805794
0.04520588825921017       680.1221881666015
