% Model:              brazing.mph
% Version:            COMSOL 5.3.0.223
% Date:               Oct 24 2018, 00:47
% Dimension:          1
% Nodes:              225
% Expressions:        1
% Description:        Line graph
% x                       Height
0                         651.5809220960871
2.02242572596226E-4       651.5729581828173
4.040113375593453E-4      651.5067452943498
6.054635867748898E-4      651.3822834306849
8.067573541103817E-4      651.1995725918222
0.0010080510467017985     650.9586127777618
0.001209503071861434      650.6594039885039
0.0014112714639836859     650.3019462240484
0.001613513515825394      649.8862394843952
0.001815803045808458      649.5112816863988
0.0020176184164428694     649.0933869125469
0.0022191170764546647     648.6325551628394
0.0024204572175778446     648.1287864372763
0.00262179740518867       647.5820807358576
0.002823296204553664      646.9924380585835
0.0030251118070788686     646.3598584054537
0.003227401660948015      645.6843417764684
0.0034297372965816655     645.0271863855693
0.003631598594156443      644.3363598263396
0.0038331430353414214     643.6118620987792
0.004034528845142556      642.8536932028882
0.004235914622467191      642.0618531386665
0.004437458966299354      641.2363419061143
0.004639320101874085      640.3771595052312
0.004841655511239337      639.4843059360178
0.005043918276497792      638.6632837421182
0.005245706959792293      637.8317102266755
0.0054471789681153834     636.9895853896893
0.00564849245128538       636.1369092311598
0.005849805932728159      635.2736817510871
0.006051277935873691      634.3999029494712
0.00625306661055245       633.5155728263119
0.006455329363777148      632.6206913816093
0.0066576887471433525     631.7528286787609
0.0068595736811967985     630.9022488211975
0.007061141707903535      630.0689518089193
0.007262551112883539      629.2529376419262
0.007463960555734714      628.4542063202182
0.007665528695965537      627.6727578437952
0.00786741381892875       626.9085922126574
0.0080697734661485        626.1617094268047
0.008272395437950266      625.4874629488895
0.008474540847339949      624.8352560854676
0.008676367906616744      624.2050888365388
0.008878035577337231      623.5969612021033
0.009079703197965442      623.010873182161
0.009281530107084053      622.446824776712
0.00948367526660416       621.9048159857562
0.009686296889411194      621.3848468092935
0.009888748367913874      621.0483487368169
0.010090724718905934      620.7478996907071
0.010292383720552634      620.483499670964
0.010493883896490891      620.2551486775876
0.010695384145210549      620.0628467105779
0.010897043365029401      619.9065937699351
0.011099020079070253      619.7863898556589
0.011301472064648224      619.7022349677494
0.011503924099142101      619.7108979060861
0.011705900863193036      619.7565964021607
0.011907560133099505      619.8393304559734
0.012109060430962503      619.9591000675242
0.012310560654077738      620.1159052368131
0.012512219699917606      620.3097459638399
0.012714196091111104      620.5406222486048
0.012916647604829811      620.8085340911077
0.013119269382981878      621.2116490990525
0.013321414683399362      621.6441845535236
0.013523241722808088      622.1061404545211
0.013724909467002238      622.5975168020449
0.013926577258472442      623.1183135960952
0.014128404439597363      623.6685308366716
0.014330549975836581      624.2481685237748
0.01453317208336263       624.857226657404
0.014735531766219815      625.5284398478054
0.014937416940401616      626.2118193360258
0.015138985143475461      626.9073651220651
0.015340394656791169      627.6150772059236
0.015541804135826716      628.3349555876011
0.015743372236141022      629.0670002670976
0.015945257239325793      629.8112112444132
0.01614761668334845       630.5675885195478
0.01634987940592303       631.4250760876979
0.016551668047823844      632.2710787352679
0.016753140015983766      633.1055964622582
0.0169544534601584        633.9286292686684
0.017155766903708087      634.7401771544987
0.017357238869994664      635.540240119749
0.017559027508778132      636.3288181644194
0.01776129022699866       637.1059112885099
0.017963625484858744      637.9079111244904
0.018165486461237414      638.6869106268632
0.018367030641941378      639.4429097956286
0.018568416255992027      640.1759086307862
0.018769801906169285      640.8859071323363
0.018971346195167795      641.5729053002789
0.019173207351754082      642.236903134614
0.019375542861313405      642.8779006353415
0.019577832661189145      643.5349478549512
0.019779648217873542      644.1442431418385
0.019981146975907166      644.7057864960033
0.020182487123025287      645.2195779174458
0.020383827220813066      645.6856174061659
0.020585325830972126      646.1039049621635
0.020787141141585735      646.4744405854387
0.020989430597769934      646.7972242759915
0.021191672662378012      647.2094618401009
0.021393441061935803      647.5630111785058
0.02159489309031221       647.8578722912064
0.021796186783028852      648.0940451782026
0.021997480548535182      648.2715298394944
0.022198932795108938      648.3903262750817
0.022400701557758636      648.4504344849647
0.02260294412950465       648.4518544691433
0.02280539620920995       648.4939951917975
0.023007373018156245      648.4753085196277
0.02320903233274668       648.395794452634
0.023410532675187733      648.2554529908165
0.023612032942881025      648.0542841341751
0.023813692033404853      647.7922878827097
0.024015668469493705      647.4694642364204
0.024218120028423832      647.0858131953074
0.024420742013481003      646.7188249676256
0.02462288751935683       646.3021688727316
0.02482471476325633       645.8358449106257
0.02502638271145666       645.3198530813079
0.025228050706933344      644.754193384778
0.025429878092549915      644.1388658210361
0.025632023834248962      643.4738703900823
0.025834646148682177      642.7592070919167
0.026037006051731277      642.0401683367637
0.026238891444565628      641.2840431498057
0.02644045986526205       640.4908315310429
0.026641869595683754      639.660533480475
0.02684327929182417       638.7931489981022
0.027044847609757647      637.8886780839243
0.02724673283158932       636.9471207379415
0.027449092495796006      635.9684769601538
0.02765135518998453       635.0121346740483
0.027853143803698084      634.0481011396848
0.028054615743803996      633.0763763570633
0.028255929159991804      632.0969603261836
0.028457242575555555      631.109853047046
0.028658714513790734      630.1150545196502
0.028860503124391312      629.1125647439966
0.029062765814231884      628.1023837200847
0.029265100752448706      627.0975506128174
0.02946696141141544       626.1163964975987
0.029668505276199596      625.1589213744288
0.029869890575077548      624.2251252433078
0.03007127591008127       623.3150081042356
0.030272819883157453      622.4285699572123
0.03047468072232762       621.5658108022375
0.030677015912237836      620.7267306393118
0.030879305594778746      619.9567442647078
0.03108112103494649       619.2216511845852
0.031282619677010744      618.5214513989438
0.03148395970843373       617.8561449077837
0.0316852996905265        617.2257317111048
0.031886798184716555      616.6302118089071
0.032088613378814135      616.0695852011908
0.03229090271766436       615.5438518879556
0.03249314477533616       615.186565882278
0.03269491316800606       614.8800613600412
0.03289636518952694       614.6243383212452
0.03309765887540427       614.4193967658899
0.033298952634071295      614.2652366939755
0.033500404873789524      614.1618581055019
0.03370217362955133       614.1092610004689
0.03390441619436107       614.1074453788768
0.03410686840969767       614.2008245163017
0.03430884535332711       614.3452711741616
0.0345105048019665        614.540785352456
0.034712005278138794      614.7873670511855
0.03491350567956333       615.0850162703497
0.03511516490413611       615.4337330099488
0.035317141474908095      615.8335172699827
0.03551959316946952       616.2843690504513
0.035722216260139425      616.8663068555888
0.03592436286389621       617.4873572218631
0.036126191200505704      618.1475201492741
0.03632786023882611       618.8467956378219
0.03652952932442421       619.5851836875064
0.036731357802754806      620.3626842983276
0.03693350464234149       621.1792974702856
0.03713612806239678       622.0350232033804
0.03733848789969145       622.9469813967537
0.037540373227224554      623.8781735578561
0.03774194158292153       624.8285996866878
0.03794335124849304       625.7982597832488
0.03814476087977932       626.787153847539
0.03834632913270157       627.7952818795584
0.03854821428921239       628.8226438793071
0.038750573887637245      629.869239846785
0.03895283596123875       630.9754867068348
0.039154623958694366      632.0696861624668
0.039356095285438375      633.1518382136812
0.03955740808971597       634.221942860478
0.03975872089337115       635.2800001028569
0.03996019221824938       636.3260099408183
0.04016198021260023       637.3599723743619
0.04036424228186526       638.3818874034879
0.040566577948397485      639.3915606520501
0.040768439330593605      640.369008161323
0.04096998391520435       641.3142299313064
0.04117136993220262       642.2272259620005
0.04137275598532357       643.1079962534053
0.04157430067821714       643.9565408055208
0.04177616224060133       644.7728596183468
0.0419784981588055        645.5569526918836
0.04218078754816035       646.3242023422404
0.04238260269718259       647.0339157975967
0.04258410104946696       647.6860930579522
0.04278544079179545       648.2807341233072
0.04298678048479618       648.8178389936614
0.043188278689213704      649.2974076690151
0.043390093592177985      649.7194401493681
0.04359238263785921       650.0839364347205
0.043794623705544454      650.4932953726467
0.04399639111513442       650.8391583876427
0.04419784215819482       651.1215254797087
0.04439913486792596       651.3403966488445
0.044600427650446826      651.4957718950502
0.04480187891170468       651.587651218326
0.045003646684386715      651.6160346186715
0.04520588825921017       651.5809220960871
