% Model:              brazing.mph
% Version:            COMSOL 5.3.0.223
% Date:               Oct 24 2018, 05:53
% Dimension:          1
% Nodes:              225
% Expressions:        1
% Description:        Line graph
% x                       Height
0                         650.2879743998498
2.1191841480136804E-4     650.2077105623681
4.2353438892247565E-4     650.0909612524894
6.349689892252786E-4      649.9377264702131
8.463435942227858E-4      649.7480062155396
0.001057779685752053      649.5218004884692
0.001269398639759412      649.2591092890012
0.001481321517995422      648.9599326171361
0.0017252358262731596     648.5576110852479
0.0019686866163640313     648.127441324567
0.0022118589563155885     647.6694233350933
0.002454938550168189      647.1835571168266
0.0026981113144448556     646.6698426697673
0.0029415629522145732     646.1282799939148
0.0031854785295931678     645.5588690892697
0.0034450106912723537     644.8495065932908
0.0037039863009040125     644.1103014233411
0.003962627412610827      643.34125357942
0.0042211569424298        642.5423630615282
0.004479798094906585      641.7136298696656
0.004738773785972872      640.8550540038318
0.004998306069542035      639.9666354640271
0.005274868491808245      638.9243940635187
0.005550758931995686      637.8655517371715
0.0058262454501036105     636.7901084849851
0.006101597285810183      635.6980643069599
0.006377084073678616      634.589419203096
0.006652975052596927      633.4641731733927
0.006929538280995558      632.3223262178509
0.007206101510950518      631.1404129329134
0.007481992491406557      629.9754347669009
0.007757479280801014      628.8273917198134
0.00803283111802884       627.6962837916509
0.008308317637660222      626.5821109824137
0.008584208079380276      625.4848732921012
0.008860770503195153      624.4045707207139
0.009120302815147717      623.3899881125351
0.00937927853441616       622.4149586192261
0.009637919714987194      621.4794822407871
0.009896449272866283      620.5835589772179
0.010155090412673047      619.7271888285188
0.010414066050518256      618.9103717946894
0.01067359824059789       618.13310787573
0.010917512776055054      617.4238419900182
0.011160965100129169      616.7637126252797
0.011404139717480647      616.1527197815144
0.01164722176512739       615.5908634587227
0.011890396591516505      615.0781436569044
0.012133849333188814      614.6145603760593
0.012377764493855997      614.2001136161878
0.01258968694000722       613.8806449076089
0.012801305803204788      613.5997506050179
0.013012742322906452      613.3574307084148
0.013224118052332232      613.1536852177995
0.01343555464954572       612.9885141331725
0.013647173667633327      612.8619174545331
0.013859096345786744      612.7738951818818
0.014071014760598048      612.7430462157091
0.014282630734729056      612.7497568292735
0.01449406533504172       612.7940270225745
0.014705439940049088      612.8758567956123
0.014916876031588231      612.9952461483873
0.015128494985605482      613.1521950808989
0.015340417863851432      613.3467035931475
0.01558433217214941       613.5827776422915
0.015827782962260412      613.8761467402619
0.016070955302232025      614.2268108870583
0.016314034896104664      614.634770082681
0.0165572076604014        615.1000243271302
0.01680065929819124       615.6225736204053
0.01704457487559009       616.2024179625068
0.01730410703726679       616.8316866392806
0.017563082646895985      617.4987147121792
0.01782172375860034       618.2035021812025
0.018080253288416847      618.9460490463506
0.01833889444089119       619.726355307624
0.018597870131955005      620.5444209650217
0.018857402415521692      621.4002460185445
0.019133964837753384      622.3212388370763
0.019409855277906563      623.2589093323985
0.019685341795980367      624.2132575045111
0.019960693631652874      625.1842833534142
0.0202361804194872        626.1719868791081
0.020512071398371242      627.1763680815919
0.020788634626735362      628.1974269608666
0.02106519785666259       629.201880285078
0.021341088837091095      630.1938996708323
0.021616575626458134      631.1734851181291
0.02189192746365859       632.1406366269686
0.022167413983262562      633.095354197351
0.02244330442495508       634.0376378292757
0.022719866848742224      634.9674875227432
0.022979399160698737      635.7461683486245
0.023238374879971102      636.5031224531241
0.023497016060546046      637.2383498362422
0.023755545618429033      637.9518504979787
0.02401418675823971       638.643624438334
0.024273162396088833      639.3136716573073
0.024532694586172417      639.9619921548993
0.02477660912165014       640.5000436346857
0.02502006144574469       641.0061480891287
0.025263236063116538      641.4803055182285
0.025506318110783622      641.9225159219853
0.025749492937193107      642.3327793003995
0.02599294567888585       642.71109565347
0.026236860839573585      643.0574649811978
0.026448783285734738      643.3062592820388
0.02666040214894219       643.53911521142
0.026871838668653707      643.7560327693415
0.027083214398089334      643.9570119558033
0.027294650995312687      644.1420527708055
0.027506270013410168      644.3111552143475
0.02771819269157351       644.46431928643
0.02793011110637494       644.5273349823489
0.028141727080496122      644.5735200603049
0.028353161680798985      644.6028745202983
0.028564536285796558      644.615398362329
0.028775972377325904      644.6110915863974
0.028987591331333325      644.5899541925025
0.029199514209569403      644.5519861806454
0.02944342851784522       644.3788366343642
0.02968687930793418       644.1665970723769
0.02993005164788383       643.9152674946835
0.030173131241734534      643.6248479012836
0.0304163040060093        643.295338292178
0.0306597556437771        642.9267386673658
0.030903671221153783      642.5190490268477
0.031163203382828072      641.927243175824
0.03142217899245488       641.2924985210972
0.03168082010415685       640.6148150626677
0.03193934963397098       639.8941928005353
0.032197990786442934      639.1306317347004
0.03245696647750436       638.3241318651621
0.032716498761068635      637.4746931919215
0.03299306118333142       636.4011708110177
0.03326895162351545       635.3072008999033
0.03354443814161999       634.1927834585781
0.03381978997732317       633.0579184870422
0.034095276765188226      631.9026059852957
0.03437116774410313       630.7268459533384
0.03464773097249833       629.5306383911703
0.034924294202460265      628.2734242096228
0.03520018518292322       627.0347930673005
0.03547567197232456       625.8147449642034
0.035751023809559274      624.6132799003316
0.036026510329197556      623.4303978756853
0.036302400770924524      622.2660988902638
0.03657896319474637       621.120382944068
0.036838495506703706      620.0456318531008
0.03709747122597688       619.0210502387984
0.037356112406552636      618.0466381011607
0.03761464196443644       617.1223954401879
0.03787328310424792       616.2483222558802
0.03813225874209787       615.4244185482371
0.03839179093218227       614.6506843172589
0.03863570546763781       613.9482343709171
0.038879157791710306      613.3070580216591
0.03912233240906017       612.7271552694853
0.03936541445670531       612.2085261143956
0.039608589283092806      611.75117055639
0.039852042024763494      611.3550885954681
0.04009595718542905       611.0202802316306
0.040307879631580334      610.7608508665185
0.04051949849477797       610.5497107715299
0.0407309350144797        610.3868599466649
0.040942310743905544      610.2722983919238
0.04115374734111909       610.2060261073063
0.04136536635920676       610.1880430928123
0.04157728903736024       610.2183493484422
0.04178920745215007       610.3036763478849
0.042000823426259694      610.4357998501287
0.042212258026551035      610.6147198551732
0.04242363263153709       610.8404363630186
0.0426350687230549        611.1129493736653
0.042846687677050764      611.4322588871125
0.04305861055527523       611.7983649033608
0.04330252486354604       612.2387859364627
0.043545975653630026      612.7447561247474
0.04378914799357473       613.3162754682148
0.044032227587420474      613.9533439668651
0.04427540035169028       614.6559616206982
0.04451885198945311       615.4241284297141
0.044762767566824783      616.2578443939127
0.045022299728516735      617.1707353187833
0.04528127533816108       618.1271769779789
0.045539916449880535      619.1271693714993
0.045798445979712124      620.1707124993449
0.046057087132201545      621.2578063615157
0.04631606282328052       622.3884509580112
0.046575595106862454      623.5626462888318
0.04685215752913061       624.8183857851564
0.04712804796931999       626.095911991499
0.04740353448742985       627.3952249078596
0.04767888632313835       628.7163245342383
0.04795437311100872       630.0592108706353
0.048230264089928976      631.4238839170501
0.048506827318329566      632.8103436734832
0.04878339054829114       634.1352159275946
0.049059281528753745      635.4407171653285
0.04933476831815475       636.7268473866849
0.0496101201553891        637.9936065916638
0.04988560667502701       639.2409947802657
0.05016149711675364       640.4690119524898
0.050438059540575134      641.6776581083367
0.05069759185254397       642.6465336638646
0.05095656757182859       643.5722382587683
0.05121520875241573       644.4547718930472
0.05147373831031092       645.2941345667019
0.051732379450133786      646.0903262797326
0.05199135508799517       646.8433470321384
0.05225088727809108       647.5531968239201
0.0524948018135407        648.1029899623867
0.052738254137607306      648.5974700849778
0.05298142875495131       649.036637191693
0.05322451080259058       649.4204912825327
0.0534676856289722        649.7490323574971
0.05371113837063701       650.0222604165854
0.05395505353129665       650.2401754597984
0.05416697597743634       650.3627590432403
0.054378594840622414      650.4467575722039
0.05459003136031263       650.4921710466895
0.05480140708972696       650.4989994666968
0.05501284368692898       650.4672428322261
0.0552244627050051        650.396901143277
0.05543638538314697       650.2879743998498
