% Model:              brazing.mph
% Version:            COMSOL 5.3.0.223
% Date:               Oct 24 2018, 01:27
% Dimension:          1
% Nodes:              161
% Expressions:        1
% Description:        Line graph
% x                       Height
0                         709.9449459450401
1.9693985890610136E-4     709.9046079161986
3.9298030043864816E-4     709.8769561138641
5.884188308682271E-4      709.8619905380366
7.835557095112735E-4      709.8597111887159
9.786925881542028E-4      709.8701180659019
0.0011741311185834375     709.893211169595
0.0013701715601154056     709.9289904997948
0.0015671114190207022     709.9774560565016
0.0017642608961497635     709.7409728896699
0.0019605081241513326     709.4991406380325
0.0021561515411346144     709.2519593015892
0.002351492352702621      708.9994288803397
0.0025468331642698894     708.7415493742844
0.0027424765812509564     708.4783207834232
0.0029387238092488436     708.2097431077561
0.0031358732863727766     707.9358163472831
0.0033326885608882563     707.5692996976328
0.0035286060983021257     707.2057547639537
0.0037239228519497995     706.8451815462462
0.003918938519653848      706.48758004451
0.004113954187357973      706.132950258745
0.004309270941005876      705.7812921889516
0.004505188478420127      705.4326058351295
0.004702003752936137      705.0868911972788
0.004899138702461749      704.7391884688644
0.005095371599302965      704.4061778285385
0.005291000816927052      704.087859276301
0.005486327495291825      703.7842328121518
0.005681654173656831      703.4952984360912
0.0058772833912816074     703.2210561481189
0.0060735162881239745     702.9615059482352
0.006270651237651189      702.7166478364398
0.006467582778148322      702.5378320839401
0.006663615013526554      702.3913537310084
0.006859045413116663      702.2772127776449
0.0070541741987231454     702.1954092238497
0.007249302984329781      702.1459430696225
0.007444733383920351      702.1288143149635
0.007640765619299351      702.1440229598727
0.007837697159797551      702.1915690043501
0.008034634474091872      702.1761696289608
0.008230672405352359      702.197796261968
0.008426108448549354      702.256448903372
0.008621242851524007      702.3521275531724
0.008816377254498534      702.4848322113694
0.009011813297695145      702.654562877963
0.009207851228955002      702.8613195529532
0.00940478854324844       703.1051022363399
0.00960192671152544       703.42032975524
0.00979816278359587       703.7488329929604
0.009993795147248338      704.0906119495013
0.010189124956984269      704.445666624863
0.010384454766719743      704.8139970190451
0.010580087130370853      705.195603132048
0.010776323202439026      705.5904849638713
0.01097346137071288       705.9986425145152
0.011170281912174305      706.3711108063682
0.011366204645540166      706.7523054849308
0.011561526547508357      707.1422265502027
0.011756547339625332      707.5408740021842
0.011951568131742307      707.948247840875
0.0121468900337105        708.364348066275
0.012342812767076368      708.7891746783847
0.0125396333085378        709.2227276772038
0.012736771215691979      709.5117743112257
0.012933007030171178      709.797787498869
0.013128639138602195      710.0807672401334
0.013323968694306592      710.3607135350189
0.013519298250011432      710.6376263835257
0.013714930358443784      710.9115057856537
0.0139111661729252        711.1823517414028
0.014108304080082462      711.4501642507732
0.014305241249097643      711.4397059820662
0.014501279037039759      711.4337961045351
0.014696714938233999      711.4324346181797
0.014891849199866372      711.4356215230003
0.015086983461498874      711.4433568189967
0.015282419362693495      711.455640506169
0.01547845715063625       711.4724725845169
0.015675394319652317      711.4938530540408
0.015872325504405583      711.1059740879382
0.01606835738884011       710.725453175044
0.016263787440706973      710.3522903153585
0.016458915880206496      709.9864855088811
0.016654044319705866      709.6280387556122
0.016849474371572262      709.2769500555519
0.017045506256006017      708.9332194086999
0.017242437440758204      708.5968468150563
0.01743957168037589       708.0328606059809
0.017635803876907424      707.4583247125857
0.01783143240066149       706.8732391348706
0.018026758388388308      706.2776038728356
0.01822208437611492       705.6714189264807
0.01841771289986836       705.0546842958058
0.018613945096398854      704.4273999808111
0.018811079336015085      703.7895659814965
0.019007894687321662      703.1258669652697
0.01920381230049143       702.4631048188879
0.019399129129200405      701.8012795423516
0.01959414487161704       701.1403911356604
0.01978916061403359       700.4804395988144
0.01998447744274231       699.8214249318137
0.020180395055911654      699.1633471346581
0.020377210407217645      698.5062062073479
0.020574360469106157      697.9260338324873
0.020770608273960874      697.3656138069538
0.020966252262493188      696.8249461307471
0.021161593642948652      696.3040308038675
0.021356935023404883      695.8028678263147
0.021552579011939476      695.321457198089
0.021748826816797996      694.8597989191902
0.021945976878691802      694.4178929896183
0.022142917141692885      694.0915003470965
0.022338957981867254      693.808703130277
0.022534396907280062      693.5695013391597
0.02272953417907009       693.3738949737447
0.02292467145086023       693.2218840340317
0.02312011037627338       693.1134685200211
0.02331615121644832       693.0486484317126
0.023513091479450195      693.0274237691063
0.023710025135207962      692.9633529341141
0.02390605945730262       692.9486186090725
0.024101491924457957      692.9832207939811
0.024296622768016963      693.0671594888402
0.024491753611575823      693.2004346936494
0.02468718607873073       693.3830464084091
0.024883220400824673      693.6149946331191
0.025080154056581445      693.8962793677794
0.025277299572591536      694.2985636648
0.025473542893039384      694.7207833285182
0.02566918243840792       695.1629383589338
0.025864519396400307      695.6250287560467
0.026059856354392216      696.1070545198571
0.026255495899759323      696.609015650365
0.026451739220204794      697.1309121475703
0.026648884736211575      697.6727440114729
0.02684569473774919       698.2726710975015
0.027041607073256636      698.8768903837585
0.027236918672681274      699.4854018702434
0.027431929210095855      700.0982055569567
0.027626939747510428      700.7153014438983
0.027822251346935042      701.336689531068
0.028018163682442445      701.9623698184658
0.028214973683980002      702.5923423060921
0.028412120943583204      703.2037564845701
0.028608365984047285      703.8020299550899
0.02880400723361381       704.3871627176514
0.02899934588786498       704.9591547722547
0.02919468454211669       705.5180061188997
0.029390325791684838      706.0637167575863
0.02958657083215161       706.5962866883148
0.029783718091758563      707.1157159110849
0.029980652759780888      707.4662481559557
0.030176688080480362      707.8176722606473
0.030372121537075924      708.1699882251602
0.03056725336547531       708.523196049494
0.030762385193874833      708.8772957336489
0.030957818650470807      709.2322872776249
0.031153853971170976      709.588170681422
0.031350788639194264      709.9449459450401
