% Model:              brazing.mph
% Version:            COMSOL 5.3.0.223
% Date:               Oct 24 2018, 03:25
% Dimension:          1
% Nodes:              225
% Expressions:        1
% Description:        Line graph
% x                       Height
0                         685.7963536722564
2.02242572596226E-4       685.7843969020349
4.040113375593453E-4      685.7072090136727
6.054635867748898E-4      685.5647900071694
8.067573541103817E-4      685.3571398825254
0.0010080510467017985     685.0842586397404
0.001209503071861434      684.7461462788145
0.0014112714639836859     684.3428027997478
0.001613513515825394      683.8742282025402
0.001815803045808458      683.4581626921033
0.0020176184164428694     682.9940924284081
0.0022191170764546647     682.4820174114542
0.0024204572175778446     681.921937641242
0.00262179740518867       681.3138531177714
0.002823296204553664      680.6577638410422
0.0030251118070788686     679.9536698110547
0.003227401660948015      679.2015710278087
0.0034297372965816655     678.4730770109265
0.003631598594156443      677.7062395002702
0.0038331430353414214     676.9010584958394
0.004034528845142556      676.0575339976342
0.004235914622467191      675.1756660056546
0.004437458966299354      674.2554545199007
0.004639320101874085      673.2968995403724
0.004841655511239337      672.3000010670698
0.005043918276497792      671.394355201454
0.005245706959792293      670.4757502410843
0.0054471789681153834     669.5441861859607
0.00564849245128538       668.5996630360833
0.005849805932728159      667.642180791452
0.006051277935873691      666.6717394520667
0.00625306661055245       665.6883390179279
0.006455329363777148      664.691979489035
0.0066576887471433525     663.7270193117085
0.0068595736811967985     662.7807472035582
0.007061141707903535      661.853163164584
0.007262551112883539      660.9442671947858
0.007463960555734714      660.0540592941637
0.007665528695965537      659.1825394627176
0.00786741381892875       658.3297077004479
0.0080697734661485        657.495564007354
0.008272395437950266      656.7466198591238
0.008474540847339949      656.0203284623145
0.008676367906616744      655.316689816926
0.008878035577337231      654.6357039229583
0.009079703197965442      653.9773707804114
0.009281530107084053      653.3416903892855
0.00948367526660416       652.7286627495803
0.009686296889411194      652.1382878612959
0.009888748367913874      651.7637655491756
0.010090724718905934      651.4276811292929
0.010292383720552634      651.130034601648
0.010493883896490891      650.8708259662408
0.010695384145210549      650.6500552230713
0.010897043365029401      650.4677223721395
0.011099020079070253      650.3238274134454
0.011301472064648224      650.218370346989
0.011503924099142101      650.2206549899806
0.011705900863193036      650.2626514542507
0.011907560133099505      650.3443597397988
0.012109060430962503      650.4657798466253
0.012310560654077738      650.62691177473
0.012512219699917606      650.8277555241131
0.012714196091111104      651.0683110947743
0.012916647604829811      651.348578486714
0.013119269382981878      651.7865466485082
0.013321414683399362      652.2562034974335
0.013523241722808088      652.7575490334896
0.013724909467002238      653.2905832566769
0.013926577258472442      653.8553061669951
0.014128404439597363      654.4517177644443
0.014330549975836581      655.0798180490247
0.01453317208336263       655.7396070207359
0.014735531766219815      656.4724829020389
0.014937416940401616      657.2176991743379
0.015138985143475461      657.9752558376331
0.015340394656791169      658.7451528919242
0.015541804135826716      659.5273903372115
0.015743372236141022      660.3219681734948
0.015945257239325793      661.1288864007744
0.01614761668334845       661.94814501905
0.01634987940592303       662.8909762041188
0.016551668047823844      663.8202820362891
0.016753140015983766      664.7360625155607
0.0169544534601584        665.6383176419338
0.017155766903708087      666.5270474154082
0.017357238869994664      667.4022518359842
0.017559027508778132      668.2639309036614
0.01776129022699866       669.1120846184401
0.017963625484858744      669.9895035909445
0.018165486461237414      670.8417441132997
0.018367030641941378      671.6688061855058
0.018568416255992027      672.4706898075626
0.018769801906169285      673.2473949794703
0.018971346195167795      673.9989217012288
0.019173207351754082      674.7252699728381
0.019375542861313405      675.4264397942982
0.019577832661189145      676.1521763456407
0.019779648217873542      676.8239766050168
0.019981146975907166      677.4418405724265
0.020182487123025287      678.0057682478697
0.020383827220813066      678.5157596313464
0.020585325830972126      678.971814722857
0.020787141141585735      679.3739335224008
0.020989430597769934      679.7221160299783
0.021191672662378012      680.1856603999526
0.021393441061935803      680.5838781918549
0.02159489309031221       680.916769405685
0.021796186783028852      681.1843340414433
0.021997480548535182      681.3865720991297
0.022198932795108938      681.5234835787439
0.022400701557758636      681.5950684802862
0.02260294412950465       681.6013268037565
0.02280539620920995       681.6580763585556
0.023007373018156245      681.6471475540026
0.02320903233274668       681.5685403900976
0.023410532675187733      681.4222548668405
0.023612032942881025      681.2082909842314
0.023813692033404853      680.9266487422702
0.024015668469493705      680.5773281409571
0.024218120028423832      680.1603291802919
0.024420742013481003      679.7700954010528
0.02462288751935683       679.3246426656459
0.02482471476325633       678.8239709740712
0.02502638271145666       678.2680803263289
0.025228050706933344      677.6569707224187
0.025429878092549915      676.9906421623409
0.025632023834248962      676.2690946460953
0.025834646148682177      675.4923281736818
0.026037006051731277      674.7145449410561
0.026238891444565628      673.8951672575707
0.02644045986526205       673.0341951232258
0.026641869595683754      672.1316285380212
0.02684327929182417       671.187467501957
0.027044847609757647      670.2017120150333
0.02724673283158932       669.1743620772498
0.027449092495796006      668.1054176886068
0.02765135518998453       667.0710801936757
0.027853143803698084      666.0273482806242
0.028054615743803996      664.9742219494522
0.028255929159991804      663.9117012001597
0.028457242575555555      662.8397860327467
0.028658714513790734      661.7584764472135
0.028860503124391312      660.6677724435597
0.029062765814231884      659.5676740217856
0.029265100752448706      658.4740696476873
0.02946696141141544       657.4063376924347
0.029668505276199596      656.364478156028
0.029869890575077548      655.3484910384668
0.03007127591008127       654.3583763397515
0.030272819883157453      653.394134059882
0.03047468072232762       652.455764198858
0.030677015912237836      651.54326675668
0.030879305594778746      650.7113767112482
0.03108112103494649       649.9165817543357
0.031282619677010744      649.158881885942
0.03148395970843373       648.4382771060676
0.0316852996905265        647.7547674147123
0.031886798184716555      647.108352811876
0.032088613378814135      646.4990332975589
0.03229090271766436       645.9268088717608
0.03249314477533616       645.5504171255941
0.03269491316800606       645.2287211082598
0.03289636518952694       644.9617208197582
0.03309765887540427       644.7494162600888
0.033298952634071295      644.591807429252
0.033500404873789524      644.4888943272476
0.03370217362955133       644.4406769540756
0.03390441619436107       644.4471553097361
0.03410686840969767       644.562931756046
0.03430884535332711       644.733787138062
0.0345105048019665        644.959721455784
0.034712005278138794      645.240734709212
0.03491350567956333       645.5768268983461
0.03511516490413611       645.967998023186
0.035317141474908095      646.4142480837322
0.03551959316946952       646.9155770799844
0.035722216260139425      647.5675973490846
0.03592436286389621       648.2616586885802
0.036126191200505704      648.997761098471
0.03632786023882611       649.7759045787569
0.03652952932442421       650.5960891294382
0.036731357802754806      651.4583147505147
0.03693350464234149       652.3625814419864
0.03713612806239678       653.3088892038535
0.03733848789969145       654.3206297377197
0.037540373227224554      655.3524556629646
0.03774194158292153       656.4043669795883
0.03794335124849304       657.4763636875908
0.03814476087977932       658.5684457869721
0.03834632913270157       659.680613277732
0.03854821428921239       660.8128661598709
0.038750573887637245      661.9652044333882
0.03895283596123875       663.1903798626863
0.039154623958694366      664.4011451891718
0.039356095285438375      665.5975004128445
0.03955740808971597       666.7794455337046
0.03975872089337115       667.946980551752
0.03996019221824938       669.1001054669867
0.04016198021260023       670.2388202794091
0.04036424228186526       671.3631249890184
0.040566577948397485      672.4739946451404
0.040768439330593605      673.548828215311
0.04096998391520435       674.5876256995306
0.04117136993220262       675.5903870977991
0.04137275598532357       676.5571124101165
0.04157430067821714       677.4878016364825
0.04177616224060133       678.3824547768974
0.0419784981588055        679.2410718313613
0.04218078754816035       680.0865981117126
0.04238260269718259       680.8668385593289
0.04258410104946696       681.5817931742102
0.04278544079179545       682.2314619563564
0.04298678048479618       682.8158449057674
0.043188278689213704      683.3349420224436
0.043390093592177985      683.7887533063846
0.04359238263785921       684.1772787575903
0.043794623705544454      684.6284261078789
0.04399639111513442       685.0084983193232
0.04419784215819482       685.317495391923
0.04439913486792596       685.5554173256785
0.044600427650446826      685.7222641205894
0.04480187891170468       685.8180357766562
0.045003646684386715      685.8427322938785
0.04520588825921017       685.7963536722564
