% Model:              brazing.mph
% Version:            COMSOL 5.3.0.223
% Date:               Oct 24 2018, 02:29
% Dimension:          1
% Nodes:              225
% Expressions:        1
% Description:        Line graph
% x                       Height
0                         665.9317588739281
2.02242572596226E-4       665.9244319109487
4.040113375593453E-4      665.8565829740367
6.054635867748898E-4      665.7282120631924
8.067573541103817E-4      665.5393191784156
0.0010080510467017985     665.2899043197064
0.001209503071861434      664.9799674870645
0.0014112714639836859     664.6095086804904
0.001613513515825394      664.1785278999837
0.001815803045808458      663.7917686644884
0.0020176184164428694     663.3603937919812
0.0022191170764546647     662.8844032824622
0.0024204572175778446     662.3637971359313
0.00262179740518867       661.7985753523886
0.002823296204553664      661.1887379318341
0.0030251118070788686     660.5342848742678
0.003227401660948015      659.8352161796896
0.0034297372965816655     659.1552063541209
0.003631598594156443      658.4400205659531
0.0038331430353414214     657.6896588151861
0.004034528845142556      656.9041211018201
0.004235914622467191      656.083407425855
0.004437458966299354      655.2275177872906
0.004639320101874085      654.3364521861273
0.004841655511239337      653.4102106223647
0.005043918276497792      652.561796586786
0.005245706959792293      651.7020681254351
0.0054471789681153834     650.8310252383119
0.00564849245128538       649.9486679254164
0.005849805932728159      649.0549961867488
0.006051277935873691      648.150010022309
0.00625306661055245       647.2337094320968
0.006455329363777148      646.3060944161124
0.0066576887471433525     645.4065872798774
0.0068595736811967985     644.5248791542012
0.007061141707903535      643.6609700390837
0.007262551112883539      642.814859934525
0.007463960555734714      641.9865488405251
0.007665528695965537      641.1760367570837
0.00786741381892875       640.3833236842013
0.0080697734661485        639.6084096218775
0.008272395437950266      638.9098614890013
0.008474540847339949      638.2336550722679
0.008676367906616744      637.579790371677
0.008878035577337231      636.9482673872287
0.009079703197965442      636.3390861189231
0.009281530107084053      635.7522465667602
0.00948367526660416       635.1877487307399
0.009686296889411194      634.6455926108624
0.009888748367913874      634.2971672373411
0.010090724718905934      633.9856487250331
0.010292383720552634      633.7110370739384
0.010493883896490891      633.473332284057
0.010695384145210549      633.272534355389
0.010897043365029401      633.1086432879343
0.011099020079070253      632.981659081693
0.011301472064648224      632.891581736665
0.011503924099142101      632.8989275675522
0.011705900863193036      632.9442481309399
0.011907560133099505      633.027543426828
0.012109060430962503      633.1488134552164
0.012310560654077738      633.3080582161055
0.012512219699917606      633.5052777094949
0.012714196091111104      633.7404719353847
0.012916647604829811      634.0136408937751
0.013119269382981878      634.4292571204475
0.013321414683399362      634.8750836269504
0.013523241722808088      635.3511204132841
0.013724909467002238      635.8573674794484
0.013926577258472442      636.3938248254434
0.014128404439597363      636.9604924512691
0.014330549975836581      637.5573703569255
0.01453317208336263       638.1844585424126
0.014735531766219815      638.8769644399156
0.014937416940401616      639.5817073353606
0.015138985143475461      640.2986872287478
0.015340394656791169      641.027904120077
0.015541804135826716      641.7693580093483
0.015743372236141022      642.5230488965616
0.015945257239325793      643.2889767817172
0.01614761668334845       644.0671416648148
0.01634987940592303       644.953627225013
0.016551668047823844      645.8279687082273
0.016753140015983766      646.6901661144582
0.0169544534601584        647.5402194437055
0.017155766903708087      648.3781286959692
0.017357238869994664      649.2038938712493
0.017559027508778132      650.0175149695456
0.01776129022699866       650.8189919908584
0.017963625484858744      651.6460532580895
0.018165486461237414      652.4493774088127
0.018367030641941378      653.2289644430277
0.018568416255992027      653.984814360735
0.018769801906169285      654.7169271619341
0.018971346195167795      655.4253028466253
0.019173207351754082      656.1099414148084
0.019375542861313405      656.7708428664837
0.019577832661189145      657.4492598907109
0.019779648217873542      658.0779209944659
0.019981146975907166      658.6568261777487
0.020182487123025287      659.1859754405592
0.020383827220813066      659.6653687828976
0.020585325830972126      660.0950062047636
0.020787141141585735      660.4748877061577
0.020989430597769934      660.8050132870794
0.021191672662378012      661.2316188851225
0.021393441061935803      661.5973846683002
0.02159489309031221       661.9023106366121
0.021796186783028852      662.1463967900588
0.021997480548535182      662.3296431286399
0.022198932795108938      662.4520496523554
0.022400701557758636      662.5136163612055
0.02260294412950465       662.51434325519
0.02280539620920995       662.5576795957821
0.023007373018156245      662.5379561651314
0.02320903233274668       662.4551729632375
0.023410532675187733      662.3093299901007
0.023612032942881025      662.1004272457208
0.023813692033404853      661.8284647300981
0.024015668469493705      661.4934424432322
0.024218120028423832      661.0953603851233
0.024420742013481003      660.7171460500255
0.02462288751935683       660.2874250881224
0.02482471476325633       659.8061974994143
0.02502638271145666       659.273463283901
0.025228050706933344      658.6892224415826
0.025429878092549915      658.0534749724591
0.025632023834248962      657.3662208765304
0.025834646148682177      656.6274601537965
0.026037006051731277      655.884639207019
0.026238891444565628      655.1032804921316
0.02644045986526205       654.2833840091347
0.026641869595683754      653.424949758028
0.02684327929182417       652.5279777388116
0.027044847609757647      651.5924679514854
0.02724673283158932       650.6184203960496
0.027449092495796006      649.6058350725041
0.02765135518998453       648.6193634267736
0.027853143803698084      647.6247051985627
0.028054615743803996      646.6218603878715
0.028255929159991804      645.6108289946999
0.028457242575555555      644.591611019048
0.028658714513790734      643.5642064609156
0.028860503124391312      642.5286153203028
0.029062765814231884      641.4848375972097
0.029265100752448706      640.4466631004686
0.02946696141141544       639.4330172169324
0.029668505276199596      638.4438999466009
0.029869890575077548      637.4793112894741
0.03007127591008127       636.5392512455521
0.030272819883157453      635.6237198148349
0.03047468072232762       634.7327169973223
0.030677015912237836      633.8662427930145
0.030879305594778746      633.0724578188126
0.03108112103494649       632.314469797854
0.031282619677010744      631.5922787301389
0.03148395970843373       630.9058846156671
0.0316852996905265        630.2552874544388
0.031886798184716555      629.6404872464539
0.032088613378814135      629.0614839917123
0.03229090271766436       628.5182776902141
0.03249314477533616       628.1526584545356
0.03269491316800606       627.8392903237578
0.03289636518952694       627.5781732978807
0.03309765887540427       627.3693073769041
0.033298952634071295      627.2126925608281
0.033500404873789524      627.1083288496528
0.03370217362955133       627.0562162433782
0.03390441619436107       627.056354742004
0.03410686840969767       627.1563408812754
0.03430884535332711       627.3088873704801
0.0345105048019665        627.5139942096183
0.034712005278138794      627.7716613986901
0.03491350567956333       628.0818889376952
0.03511516490413611       628.4446768266338
0.035317141474908095      628.8600250655057
0.03551959316946952       629.3279336543112
0.035722216260139425      629.9335870058267
0.03592436286389621       630.5794789038761
0.036126191200505704      631.2656093484594
0.03632786023882611       631.9919783395766
0.03652952932442421       632.7585858772278
0.036731357802754806      633.5654319614127
0.03693350464234149       634.412516592132
0.03713612806239678       635.2998397693848
0.03733848789969145       636.2464089096097
0.037540373227224554      637.2126195444423
0.03774194158292153       638.1984716738826
0.03794335124849304       639.2039652979307
0.03814476087977932       640.2291004165864
0.03834632913270157       641.2738770298499
0.03854821428921239       642.3382951377212
0.038750573887637245      643.4223547402001
0.03895283596123875       644.5704268491564
0.039154623958694366      645.7057887400188
0.039356095285438375      646.8284404127869
0.03955740808971597       647.938381867461
0.03975872089337115       649.035613104041
0.03996019221824938       650.1201341225267
0.04016198021260023       651.1919449229187
0.04036424228186526       652.2510455052162
0.040566577948397485      653.2972215322325
0.040768439330593605      654.3099836058249
0.04096998391520435       655.2893317259934
0.04117136993220262       656.235265892738
0.04137275598532357       657.1477861060588
0.04157430067821714       658.0268923659556
0.04177616224060133       658.8725846724285
0.0419784981588055        659.6848630254775
0.04218078754816035       660.4807143897855
0.04238260269718259       661.216566946502
0.04258410104946696       661.8924206956269
0.04278544079179545       662.5082756371602
0.04298678048479618       663.0641317711019
0.043188278689213704      663.5599890974522
0.043390093592177985      663.9958476162108
0.04359238263785921       664.3717073273779
0.043794623705544454      664.7975234927087
0.04399639111513442       665.157394023179
0.04419784215819482       665.4513189187886
0.04439913486792596       665.6792981795377
0.044600427650446826      665.8413318054261
0.04480187891170468       665.937419796454
0.045003646684386715      665.9675621526212
0.04520588825921017       665.9317588739281
