% Model:              brazing.mph
% Version:            COMSOL 5.3.0.223
% Date:               Oct 24 2018, 06:03
% Dimension:          1
% Nodes:              161
% Expressions:        1
% Description:        Line graph
% x                       Height
0                         744.5044212139136
1.9693985890610136E-4     744.4448891959265
3.9298030043864816E-4     744.4013617689635
5.884188308682271E-4      744.373838933025
7.835557095112735E-4      744.3623206881106
9.786925881542028E-4      744.3668070342204
0.0011741311185834375     744.3872979713545
0.0013701715601154056     744.4237934995128
0.0015671114190207022     744.4762936186954
0.0017642608961497635     744.2422126854602
0.0019605081241513326     744.0044912863333
0.0021561515411346144     743.7631294213146
0.002351492352702621      743.5181270904043
0.0025468331642698894     743.2694842936022
0.0027424765812509564     743.0172010309084
0.0029387238092488436     742.7612773023229
0.0031358732863727766     742.5017131078457
0.0033326885608882563     742.1527941286757
0.0035286060983021257     741.8072239311429
0.0037239228519497995     741.4650025152474
0.003918938519653848      741.1261298809891
0.004113954187357973      740.790606028368
0.004309270941005876      740.4584309573842
0.004505188478420127      740.1296046680376
0.004702003752936137      739.8041271603282
0.004899138702461749      739.4771426778633
0.005095371599302965      739.1641990215471
0.005291000816927052      738.8652961913793
0.005486327495291825      738.5804341873602
0.005681654173656831      738.3096130094895
0.0058772833912816074     738.0528326577672
0.0060735162881239745     737.8100931321935
0.006270651237651189      737.5813944327683
0.006467582778148322      737.4178965749828
0.006663615013526554      737.2848963907511
0.006859045413116663      737.1823938800734
0.0070541741987231454     737.1103890429494
0.007249302984329781      737.0688818793792
0.007444733383920351      737.0578723893631
0.007640765619299351      737.0773605729007
0.007837697159797551      737.1273464299923
0.008034634474091872      737.1100951701192
0.008230672405352359      737.1282034212925
0.008426108448549354      737.1816711835124
0.008621242851524007      737.2704984567793
0.008816377254498534      737.3946852410927
0.009011813297695145      737.5542315364527
0.009207851228955002      737.7491373428593
0.00940478854324844       737.9794026603126
0.00960192671152544       738.2801420673768
0.00979816278359587       738.593565287359
0.009993795147248338      738.9196723202595
0.010189124956984269      739.2584631660781
0.010384454766719743      739.6099378248148
0.010580087130370853      739.9740962964697
0.010776323202439026      740.3509385810429
0.01097346137071288       740.7404646785342
0.011170281912174305      741.0937269384019
0.011366204645540166      741.4562847458191
0.011561526547508357      741.828138100786
0.011756547339625332      742.2092870033025
0.011951568131742307      742.5997314533687
0.0121468900337105        742.9994714509846
0.012342812767076368      743.4085069961501
0.0125396333085378        743.8268380888653
0.012736771215691979      744.1027258989277
0.012933007030171178      744.377089180618
0.013128639138602195      744.6499279339364
0.013323968694306592      744.9212421588828
0.013519298250011432      745.1910318554571
0.013714930358443784      745.4592970236595
0.0139111661729252        745.7260376634898
0.014108304080082462      745.9912537749481
0.014305241249097643      745.9781284463503
0.014501279037039759      745.9725493390123
0.014696714938233999      745.9745164529337
0.014891849199866372      745.9840297881148
0.015086983461498874      746.0010893445555
0.015282419362693495      746.0256951222557
0.01547845715063625       746.0578471212157
0.015675394319652317      746.0975453414351
0.015872325504405583      745.7233973144815
0.01606835738884011       745.3596588712227
0.016263787440706973      745.0063300116584
0.016458915880206496      744.663410735789
0.016654044319705866      744.3309010436142
0.016849474371572262      744.008800935134
0.017045506256006017      743.6971104103486
0.017242437440758204      743.3958294692578
0.01743957168037589       742.8673225866363
0.017635803876907424      742.330399064261
0.01783143240066149       741.7850589021319
0.018026758388388308      741.231302100249
0.01822208437611492       740.6691286586124
0.01841771289986836       740.0985385772219
0.018613945096398854      739.5195318560777
0.018811079336015085      738.9321084951798
0.019007894687321662      738.321735498917
0.01920381230049143       737.7120212359212
0.019399129129200405      737.1029657061927
0.01959414487161704       736.494568909731
0.01978916061403359       735.8868308465366
0.01998447744274231       735.279751516609
0.020180395055911654      734.6733309199487
0.020377210407217645      734.0675690565555
0.020574360469106157      733.5376261157055
0.020770608273960874      733.0250178937629
0.020966252262493188      732.5297443907277
0.021161593642948652      732.0518056065997
0.021356935023404883      731.5912015413792
0.021552579011939476      731.1479321950661
0.021748826816797996      730.7219975676603
0.021945976878691802      730.3133976591619
0.022142917141692885      730.018928285226
0.022338957981867254      729.7638132249625
0.022534396907280062      729.5480524783715
0.02272953417907009       729.3716460454526
0.02292467145086023       729.234593926206
0.02312011037627338       729.1368961206317
0.02331615121644832       729.0785526287298
0.023513091479450195      729.0595634505001
0.023710025135207962      728.9919773236733
0.02390605945730262       728.9695524756879
0.024101491924457957      728.9922889065441
0.024296622768016963      729.060186616242
0.024491753611575823      729.1732456047815
0.02468718607873073       729.3314658721627
0.024883220400824673      729.5348474183854
0.025080154056581445      729.7833902434498
0.025277299572591536      730.1520685018606
0.025473542893039384      730.5381448560014
0.02566918243840792       730.9416193058721
0.025864519396400307      731.3624918514724
0.026059856354392216      731.8007624928028
0.026255495899759323      732.2564312298629
0.026451739220204794      732.7294980626531
0.026648884736211575      733.219962991173
0.02684569473774919       733.7666237012305
0.027041607073256636      734.317471387854
0.027236918672681274      734.8725060510434
0.027431929210095855      735.4317276907988
0.027626939747510428      735.9951363071202
0.027822251346935042      736.5627319000076
0.028018163682442445      737.1345144694609
0.028214973683980002      737.7104840154802
0.028412120943583204      738.2700653619792
0.028608365984047285      738.8184499050527
0.02880400723361381       739.3556376447006
0.02899934588786498       739.8816285809228
0.02919468454211669       740.3964227137196
0.029390325791684838      740.9000200430909
0.02958657083215161       741.3924205690365
0.029783718091758563      741.8736242915567
0.029980652759780888      742.1882405186032
0.030176688080480362      742.5069234280061
0.030372121537075924      742.8296730197658
0.03056725336547531       743.156489293882
0.030762385193874833      743.4873722503551
0.030957818650470807      743.8223218891845
0.031153853971170976      744.1613382103708
0.031350788639194264      744.5044212139136
