% Model:              brazing.mph
% Version:            COMSOL 5.3.0.223
% Date:               Oct 24 2018, 00:54
% Dimension:          1
% Nodes:              161
% Expressions:        1
% Description:        Line graph
% x                       Height
0                         635.976016137281
1.9693985890610136E-4     635.941381409991
3.9298030043864816E-4     635.9175586252953
5.884188308682271E-4      635.9045477831938
7.835557095112735E-4      635.9023488836867
9.786925881542028E-4      635.9109619267738
0.0011741311185834375     635.9303869124551
0.0013701715601154056     635.9606238407306
0.0015671114190207022     636.0016727116003
0.0017642608961497635     635.7657182626982
0.0019605081241513326     635.5276011446591
0.0021561515411346144     635.2873213574833
0.002351492352702621      635.0448789011706
0.0025468331642698894     634.800273775721
0.0027424765812509564     634.5535059811348
0.0029387238092488436     634.3045755174115
0.0031358732863727766     634.0534823845514
0.0033326885608882563     633.6944675710249
0.0035286060983021257     633.3415097789497
0.0037239228519497995     632.9946090083258
0.003918938519653848      632.6537652591533
0.004113954187357973      632.3189785314321
0.004309270941005876      631.9902488251622
0.004505188478420127      631.6675761403438
0.004702003752936137      631.3509604769766
0.004899138702461749      631.0134041513712
0.005095371599302965      630.692776541482
0.005291000816927052      630.3890776473089
0.005486327495291825      630.102307468852
0.005681654173656831      629.8324660061112
0.0058772833912816074     629.5795532590865
0.0060735162881239745     629.3435692277781
0.006270651237651189      629.1245139121858
0.006467582778148322      628.9512550445282
0.006663615013526554      628.8100254739113
0.006859045413116663      628.7008252003352
0.0070541741987231454     628.6236542237998
0.007249302984329781      628.5785125443051
0.007444733383920351      628.5654001618512
0.007640765619299351      628.5843170764381
0.007837697159797551      628.6352632880656
0.008034634474091872      628.6325305783347
0.008230672405352359      628.6655434986257
0.008426108448549354      628.7343020489386
0.008621242851524007      628.8388062292736
0.008816377254498534      628.9790560396304
0.009011813297695145      629.1550514800093
0.009207851228955002      629.3667925504101
0.00940478854324844       629.6142792508329
0.00960192671152544       629.9122623481306
0.00979816278359587       630.2257730687813
0.009993795147248338      630.5548114127853
0.010189124956984269      630.8993773801421
0.010384454766719743      631.2594709708521
0.010580087130370853      631.6350921849153
0.010776323202439026      632.0262410223314
0.01097346137071288       632.4329174831007
0.011170281912174305      632.789702183965
0.011366204645540166      633.157191237021
0.011561526547508357      633.5353846422689
0.011756547339625332      633.9242823997084
0.011951568131742307      634.3238845093397
0.0121468900337105        634.7341909711628
0.012342812767076368      635.1552017851776
0.0125396333085378        635.5869169513842
0.012736771215691979      635.8594898958795
0.012933007030171178      636.1323880050426
0.013128639138602195      636.4056112788737
0.013323968694306592      636.6791597173727
0.013519298250011432      636.9530333205396
0.013714930358443784      637.2272320883745
0.0139111661729252        637.5017560208773
0.014108304080082462      637.776605118048
0.014305241249097643      637.7700107094369
0.014501279037039759      637.767299419084
0.014696714938233999      637.7684712469894
0.014891849199866372      637.7735261931531
0.015086983461498874      637.7824642575749
0.015282419362693495      637.795285440255
0.01547845715063625       637.8119897411935
0.015675394319652317      637.8325771603901
0.015872325504405583      637.4780413872662
0.01606835738884011       637.1287366311958
0.016263787440706973      636.7846628921791
0.016458915880206496      636.4458201702158
0.016654044319705866      636.1122084653061
0.016849474371572262      635.78382777745
0.017045506256006017      635.4606781066475
0.017242437440758204      635.1427594528985
0.01743957168037589       634.6043264989885
0.017635803876907424      634.057794603626
0.01783143240066149       633.5031637668108
0.018026758388388308      632.9404339885428
0.01822208437611492       632.3696052688223
0.01841771289986836       631.7906776076492
0.018613945096398854      631.2036510050234
0.018811079336015085      630.608525460945
0.019007894687321662      629.9716974065554
0.01920381230049143       629.3377167929385
0.019399129129200405      628.706583620094
0.01959414487161704       628.078297888022
0.01978916061403359       627.4528595967225
0.01998447744274231       626.8302687461955
0.020180395055911654      626.210525336441
0.020377210407217645      625.5936293674591
0.020574360469106157      625.0336930007243
0.020770608273960874      624.494367439258
0.020966252262493188      623.97565268306
0.021161593642948652      623.4775487321307
0.021356935023404883      623.0000555864697
0.021552579011939476      622.5431732460773
0.021748826816797996      622.1069017109533
0.021945976878691802      621.6912409810977
0.022142917141692885      621.370052309678
0.022338957981867254      621.0906588027832
0.022534396907280062      620.8530604604131
0.02272953417907009       620.6572572825679
0.02292467145086023       620.5032492692476
0.02312011037627338       620.391036420452
0.02331615121644832       620.3206187361812
0.023513091479450195      620.2919962164353
0.023710025135207962      620.22755161237
0.02390605945730262       620.2097670086882
0.024101491924457957      620.23864240539
0.024296622768016963      620.3141778024752
0.024491753611575823      620.436373199944
0.02468718607873073       620.6052285977962
0.024883220400824673      620.8207439960321
0.025080154056581445      621.0829193946514
0.025277299572591536      621.4460792334172
0.025473542893039384      621.8303087302255
0.02566918243840792       622.2356078850764
0.025864519396400307      622.6619766979697
0.026059856354392216      623.1094151689056
0.026255495899759323      623.5779232978839
0.026451739220204794      624.0675010849046
0.026648884736211575      624.5781485299678
0.02684569473774919       625.131447945631
0.027041607073256636      625.6906504194247
0.027236918672681274      626.2557559513496
0.027431929210095855      626.8267645414052
0.027626939747510428      627.4036761895916
0.027822251346935042      627.9864908959088
0.028018163682442445      628.5752086603569
0.028214973683980002      629.1698294829358
0.028412120943583204      629.7307729873054
0.028608365984047285      630.2821545036029
0.02880400723361381       630.8239740318284
0.02899934588786498       631.3562315719818
0.02919468454211669       631.8789271240631
0.029390325791684838      632.3920606880725
0.02958657083215161       632.8956322640098
0.029783718091758563      633.3896418518751
0.029980652759780888      633.710929137872
0.030176688080480362      634.0327905666344
0.030372121537075924      634.3552261381619
0.03056725336547531       634.678235852455
0.030762385193874833      635.0018197095135
0.030957818650470807      635.3259777093373
0.031153853971170976      635.6507098519264
0.031350788639194264      635.976016137281
