% Model:              brazing.mph
% Version:            COMSOL 5.3.0.223
% Date:               Oct 24 2018, 05:40
% Dimension:          1
% Nodes:              161
% Expressions:        1
% Description:        Line graph
% x                       Height
0                         730.490825902431
1.9693985890610136E-4     730.4357064268742
3.9298030043864816E-4     730.3956279628425
5.884188308682271E-4      730.370590510336
7.835557095112735E-4      730.3605940693544
9.786925881542028E-4      730.365638639898
0.0011741311185834375     730.3857242219666
0.0013701715601154056     730.4208508155601
0.0015671114190207022     730.4710184206789
0.0017642608961497635     730.2354297216967
0.0019605081241513326     729.9962875374971
0.0021561515411346144     729.7535918680804
0.002351492352702621      729.5073427134461
0.0025468331642698894     729.2575400735943
0.0027424765812509564     729.0041839485253
0.0029387238092488436     728.7472743382389
0.0031358732863727766     728.486811242735
0.0033326885608882563     728.1341612121494
0.0035286060983021257     727.7853150935975
0.0037239228519497995     727.4402728870793
0.003918938519653848      727.0990345925951
0.004113954187357973      726.7616002101446
0.004309270941005876      726.427969739728
0.004505188478420127      726.0981431813452
0.004702003752936137      725.7721205349961
0.004899138702461749      725.4414316827082
0.005095371599302965      725.125425851259
0.005291000816927052      724.8241030406488
0.005486327495291825      724.5374632508775
0.005681654173656831      724.265506481945
0.0058772833912816074     724.0082327338514
0.0060735162881239745     723.7656420065965
0.006270651237651189      723.5377343001805
0.006467582778148322      723.3717806140339
0.006663615013526554      723.2368603958439
0.006859045413116663      723.1329736456105
0.0070541741987231454     723.0601203633338
0.007249302984329781      723.0183005490136
0.007444733383920351      723.0075142026501
0.007640765619299351      723.0277613242432
0.007837697159797551      723.0790419137928
0.008034634474091872      723.065044144106
0.008230672405352359      723.0866909841991
0.008426108448549354      723.1439824340721
0.008621242851524007      723.2369184937252
0.008816377254498534      723.3654991631581
0.009011813297695145      723.5297244423712
0.009207851228955002      723.7295943313642
0.00940478854324844       723.9651088301371
0.00960192671152544       724.2681600944118
0.00979816278359587       724.5844747323009
0.009993795147248338      724.9140527438049
0.010189124956984269      725.2568941289231
0.010384454766719743      725.612998887656
0.010580087130370853      725.9823670200035
0.010776323202439026      726.3649985259655
0.01097346137071288       726.760893405542
0.011170281912174305      727.1180712641525
0.011366204645540166      727.4847874049559
0.011561526547508357      727.8610418279528
0.011756547339625332      728.2468345331428
0.011951568131742307      728.642165520526
0.0121468900337105        729.0470347901024
0.012342812767076368      729.461442341872
0.0125396333085378        729.8853881758349
0.012736771215691979      730.1639432356791
0.012933007030171178      730.4410875117824
0.013128639138602195      730.7168210041447
0.013323968694306592      730.991143712766
0.013519298250011432      731.2640556376462
0.013714930358443784      731.5355567787855
0.0139111661729252        731.8056471361837
0.014108304080082462      732.0743267098409
0.014305241249097643      732.0635117730395
0.014501279037039759      732.0593884381256
0.014696714938233999      732.0619567050993
0.014891849199866372      732.0712165739603
0.015086983461498874      732.0871680447088
0.015282419362693495      732.1098111173449
0.01547845715063625       732.1391457918683
0.015675394319652317      732.1751720682792
0.015872325504405583      731.8030562960406
0.01606835738884011       731.4402529912917
0.016263787440706973      731.0867621540318
0.016458915880206496      730.7425837842618
0.016654044319705866      730.4077178819811
0.016849474371572262      730.0821644471897
0.017045506256006017      729.7659234798879
0.017242437440758204      729.4589949800754
0.01743957168037589       728.9256170956598
0.017635803876907424      728.3837547385177
0.01783143240066149       727.8334079086492
0.018026758388388308      727.274576606054
0.01822208437611492       726.7072608307323
0.01841771289986836       726.1314605826841
0.018613945096398854      725.5471758619093
0.018811079336015085      724.9544066684081
0.019007894687321662      724.3358065852022
0.01920381230049143       723.7182493400792
0.019399129129200405      723.1017349330385
0.01959414487161704       722.4862633640807
0.01978916061403359       721.8718346332056
0.01998447744274231       721.258448740413
0.020180395055911654      720.646105685703
0.020377210407217645      720.0348054690756
0.020574360469106157      719.4962290718413
0.020770608273960874      718.9756815978252
0.020966252262493188      718.4731630470274
0.021161593642948652      717.9886734194475
0.021356935023404883      717.522212715086
0.021552579011939476      717.0737809339427
0.021748826816797996      716.6433780760175
0.021945976878691802      716.2310041413106
0.022142917141692885      715.9296155519685
0.022338957981867254      715.6682505420098
0.022534396907280062      715.4469091114349
0.02272953417907009       715.2655912602434
0.02292467145086023       715.1242969884354
0.02312011037627338       715.023026296011
0.02331615121644832       714.9617791829702
0.023513091479450195      714.940555649313
0.023710025135207962      714.8726225457644
0.02390605945730262       714.8503021177768
0.024101491924457957      714.8735943653503
0.024296622768016963      714.9424992884844
0.024491753611575823      715.0570168871795
0.02468718607873073       715.2171471614356
0.024883220400824673      715.4228901112525
0.025080154056581445      715.6742457366304
0.025277299572591536      716.0431436914133
0.025473542893039384      716.4301873439612
0.02566918243840792       716.8353766942734
0.025864519396400307      717.2587117423506
0.026059856354392216      717.7001924881923
0.026255495899759323      718.1598189317988
0.026451739220204794      718.6375910731699
0.026648884736211575      719.1335089123058
0.02684569473774919       719.6833664010923
0.027041607073256636      720.2377893591773
0.027236918672681274      720.7967777865612
0.027431929210095855      721.3603316832434
0.027626939747510428      721.9284510492243
0.027822251346935042      722.5011358845037
0.028018163682442445      723.0783861890818
0.028214973683980002      723.6602019629584
0.028412120943583204      724.222808282065
0.028608365984047285      724.774442417305
0.02880400723361381       725.315104368678
0.02899934588786498       725.8447941361842
0.02919468454211669       726.3635117198235
0.029390325791684838      726.8712571195961
0.02958657083215161       727.3680303355017
0.029783718091758563      727.8538313675405
0.029980652759780888      728.1719169740863
0.030176688080480362      728.493299355008
0.030372121537075924      728.8179785103055
0.03056725336547531       729.1459544399789
0.030762385193874833      729.4772271440282
0.030957818650470807      729.8117966224534
0.031153853971170976      730.1496628752542
0.031350788639194264      730.490825902431
