% Model:              brazing.mph
% Version:            COMSOL 5.3.0.223
% Date:               Oct 24 2018, 06:45
% Dimension:          1
% Nodes:              225
% Expressions:        1
% Description:        Line graph
% x                       Height
0                         720.8228463630278
2.02242572596226E-4       720.8071549788128
4.040113375593453E-4      720.7211646808137
6.054635867748898E-4      720.5648754690302
8.067573541103817E-4      720.3382873434624
0.0010080510467017985     720.0414003041103
0.001209503071861434      719.6742143509739
0.0014112714639836859     719.2367294840533
0.001613513515825394      718.7289457033482
0.001815803045808458      718.2807601513588
0.0020176184164428694     717.780919520119
0.0022191170764546647     717.2294238096291
0.0024204572175778446     716.6262730198889
0.00262179740518867       715.9714671508984
0.002823296204553664      715.2650062026578
0.0030251118070788686     714.506890175167
0.003227401660948015      713.6971190684259
0.0034297372965816655     712.9144073641954
0.003631598594156443      712.089985142697
0.0038331430353414214     711.2238524039306
0.004034528845142556      710.3160091478962
0.004235914622467191      709.366455374594
0.004437458966299354      708.3751910840238
0.004639320101874085      707.3422162761857
0.004841655511239337      706.2675309510796
0.005043918276497792      705.2961723944193
0.005245706959792293      704.3101062024843
0.0054471789681153834     703.3093323752747
0.00564849245128538       702.2938509127905
0.005849805932728159      701.2636618150316
0.006051277935873691      700.218765081998
0.00625306661055245       699.1591607136895
0.006455329363777148      698.0848487101066
0.0066576887471433525     697.0454154993047
0.0068595736811967985     696.0255648902006
0.007061141707903535      695.0252968827942
0.007262551112883539      694.0446114770856
0.007463960555734714      693.0835086730746
0.007665528695965537      692.1419884707615
0.00786741381892875       691.2200508701461
0.0080697734661485        690.3176958712285
0.008272395437950266      689.5086735101399
0.008474540847339949      688.7230313234257
0.008676367906616744      687.9607693110862
0.008878035577337231      687.221887473121
0.009079703197965442      686.5063858095302
0.009281530107084053      685.814264320314
0.00948367526660416       685.1455230054721
0.009686296889411194      684.5001618650048
0.009888748367913874      684.090660908084
0.010090724718905934      683.7215381981292
0.010292383720552634      683.3927937351402
0.010493883896490891      683.1044275191172
0.010695384145210549      682.8564395500599
0.010897043365029401      682.6488298279687
0.011099020079070253      682.4815983528434
0.011301472064648224      682.354745124684
0.011503924099142101      682.3458290485926
0.011705900863193036      682.378799247217
0.011907560133099505      682.4536557205572
0.012109060430962503      682.5703984686132
0.012310560654077738      682.7290274913852
0.012512219699917606      682.9295427888728
0.012714196091111104      683.1719443610765
0.012916647604829811      683.456232207996
0.013119269382981878      683.912285868089
0.013321414683399362      684.401909050411
0.013523241722808088      684.9251017549617
0.013724909467002238      685.4818639817414
0.013926577258472442      686.07219573075
0.014128404439597363      686.6960970019874
0.014330549975836581      687.3535677954536
0.01453317208336263       688.0446081111488
0.014735531766219815      688.816284631525
0.014937416940401616      689.6006797469003
0.015138985143475461      690.3977934572748
0.015340394656791169      691.2076257626484
0.015541804135826716      692.0301766630212
0.015743372236141022      692.8654461583932
0.015945257239325793      693.7134342487643
0.01614761668334845       694.5741409341346
0.01634987940592303       695.5727100211353
0.016551668047823844      696.5565217485718
0.016753140015983766      697.5255761164436
0.0169544534601584        698.4798731247511
0.017155766903708087      699.4194127734942
0.017357238869994664      700.3441950626726
0.017559027508778132      701.254219992287
0.01776129022699866       702.1494875623367
0.017963625484858744      703.0778646045743
0.018165486461237414      703.9795733448485
0.018367030641941378      704.8546137831596
0.018568416255992027      705.7029859195073
0.018769801906169285      706.5246897538918
0.018971346195167795      707.319725286313
0.019173207351754082      708.088092516771
0.019375542861313405      708.8297914452656
0.019577832661189145      709.6026944265874
0.019779648217873542      710.3174446710447
0.019981146975907166      710.9740421786374
0.020182487123025287      711.572486949366
0.020383827220813066      712.1127789832299
0.020585325830972126      712.5949182802296
0.020787141141585735      713.0189048403647
0.020989430597769934      713.3847386636356
0.021191672662378012      713.8840909690704
0.021393441061935803      714.3135754277595
0.02159489309031221       714.673192039703
0.021796186783028852      714.962940804901
0.021997480548535182      715.1828217233533
0.022198932795108938      715.3328347950601
0.022400701557758636      715.4129800200215
0.02260294412950465       715.4232573982372
0.02280539620920995       715.491572576534
0.023007373018156245      715.4874996121304
0.02320903233274668       715.4110385050261
0.023410532675187733      715.2621892552212
0.023612032942881025      715.0409518627157
0.023813692033404853      714.7473263275095
0.024015668469493705      714.3813126496027
0.024218120028423832      713.9429108289954
0.024420742013481003      713.5376304137224
0.02462288751935683       713.0734038482249
0.02482471476325633       712.5502311325029
0.02502638271145666       711.9681122665563
0.025228050706933344      711.3270472503854
0.025429878092549915      710.6270360839897
0.025632023834248962      709.8680787673696
0.025834646148682177      709.0501753005251
0.026037006051731277      708.2334161161359
0.026238891444565628      707.3720181865983
0.02644045986526205       706.4659815119123
0.026641869595683754      705.5153060920778
0.02684327929182417       704.5199919270949
0.027044847609757647      703.4800390169635
0.02724673283158932       702.3954473616836
0.027449092495796006      701.2662169612555
0.02765135518998453       700.1792579645793
0.027853143803698084      699.0818662466537
0.028054615743803996      697.974041807479
0.028255929159991804      696.8557846470551
0.028457242575555555      695.7270947653818
0.028658714513790734      694.5879721624596
0.028860503124391312      693.4384168382879
0.029062765814231884      692.2784287928673
0.029265100752448706      691.1260098341652
0.02946696141141544       690.001145339661
0.029668505276199596      688.9038353093549
0.029869890575077548      687.8340797432468
0.03007127591008127       686.7918786413367
0.030272819883157453      685.7772320036246
0.03047468072232762       684.7901398301109
0.030677015912237836      683.8306021207949
0.030879305594778746      682.9587796789734
0.03108112103494649       682.1261629422761
0.031282619677010744      681.332751910703
0.03148395970843373       680.5785465842539
0.0316852996905265        679.8635469629289
0.031886798184716555      679.1877530467283
0.032088613378814135      678.5511648356517
0.03229090271766436       677.9537823296992
0.03249314477533616       677.567527900789
0.03269491316800606       677.2391416216925
0.03289636518952694       676.9686234924098
0.03309765887540427       676.7559735129411
0.033298952634071295      676.6011916832862
0.033500404873789524      676.5042780034449
0.03370217362955133       676.4652324734176
0.03390441619436107       676.4840550932039
0.03410686840969767       676.6213801603154
0.03430884535332711       676.8170010125049
0.0345105048019665        677.0709176497722
0.034712005278138794      677.3831300721175
0.03491350567956333       677.7536382795408
0.03511516490413611       678.1824422720418
0.035317141474908095      678.6695420496208
0.03551959316946952       679.2149376122778
0.035722216260139425      679.9219794507285
0.03592436286389621       680.6733936796985
0.036126191200505704      681.4691802991875
0.03632786023882611       682.3093393091959
0.03652952932442421       683.1938707097235
0.036731357802754806      684.1227745007703
0.03693350464234149       685.0960506823363
0.03713612806239678       686.1136992544216
0.03733848789969145       687.202494623089
0.037540373227224554      688.3120723471437
0.03774194158292153       689.4424324265856
0.03794335124849304       690.5935748614146
0.03814476087977932       691.7654996516309
0.03834632913270157       692.9582067972341
0.03854821428921239       694.1716962982247
0.038750573887637245      695.4059681546023
0.03895283596123875       696.720153918592
0.039154623958694366      698.0182697018656
0.039356095285438375      699.3003155044233
0.03955740808971597       700.5662913262648
0.03975872089337115       701.8161971673902
0.03996019221824938       703.0500330277997
0.04016198021260023       704.2677989074931
0.04036424228186526       705.4694948064704
0.040566577948397485      706.6568452291801
0.040768439330593605      707.8052105254619
0.04096998391520435       708.9145906953158
0.04117136993220262       709.9849857387418
0.04137275598532357       711.0163956557398
0.04157430067821714       712.00882044631
0.04177616224060133       712.9622601104519
0.0419784981588055        713.8767146481662
0.04218078754816035       714.7802730564983
0.04238260269718259       715.6129351529516
0.04258410104946696       716.374700937526
0.04278544079179545       717.0655704102213
0.04298678048479618       717.6855435710378
0.043188278689213704      718.234620419975
0.043390093592177985      718.7128009570337
0.04359238263785921       719.1200851822131
0.043794623705544454      719.6009200784313
0.04399639111513442       720.0051864750448
0.04419784215819482       720.3328843720535
0.04439913486792596       720.5840137694577
0.044600427650446826      720.7585746672572
0.04480187891170468       720.856567065452
0.045003646684386715      720.8779909640422
0.04520588825921017       720.8228463630278
