% Model:              brazing.mph
% Version:            COMSOL 5.3.0.223
% Date:               Oct 24 2018, 03:44
% Dimension:          1
% Nodes:              161
% Expressions:        1
% Description:        Line graph
% x                       Height
0                         701.5860987872019
1.9693985890610136E-4     701.5366093037842
3.9298030043864816E-4     701.5011758729696
5.884188308682271E-4      701.4797984947579
7.835557095112735E-4      701.4724771691491
9.786925881542028E-4      701.4792118961433
0.0011741311185834375     701.5000026757405
0.0013701715601154056     701.5348495079404
0.0015671114190207022     701.5837523927435
0.0017642608961497635     701.3491725542608
0.0019605081241513326     701.1113488058803
0.0021561515411346144     700.8702811476026
0.002351492352702621      700.6259695794271
0.0025468331642698894     700.378414101354
0.0027424765812509564     700.1276147133834
0.0029387238092488436     699.8735714155151
0.0031358732863727766     699.6162842077493
0.0033326885608882563     699.2625268707711
0.0035286060983021257     698.913016990969
0.0037239228519497995     698.5677545683429
0.003918938519653848      698.226739602893
0.004113954187357973      697.8899720946191
0.004309270941005876      697.5574520435214
0.004505188478420127      697.2291794495995
0.004702003752936137      696.9051543128539
0.004899138702461749      696.5729627889017
0.005095371599302965      696.2557364986718
0.005291000816927052      695.9534754421646
0.005486327495291825      695.6661796193803
0.005681654173656831      695.3938490303184
0.0058772833912816074     695.1364836749791
0.0060735162881239745     694.8940835533625
0.006270651237651189      694.6666486654685
0.006467582778148322      694.4980315143247
0.006663615013526554      694.36042966457
0.006859045413116663      694.2538431162044
0.0070541741987231454     694.1782718692277
0.007249302984329781      694.1337159236399
0.007444733383920351      694.1201752794412
0.007640765619299351      694.1376499366314
0.007837697159797551      694.1861398952107
0.008034634474091872      694.1723783822467
0.008230672405352359      694.1941695054661
0.008426108448549354      694.2515132648689
0.008621242851524007      694.3444096604549
0.008816377254498534      694.4728586922242
0.009011813297695145      694.6368603601769
0.009207851228955002      694.8364146643129
0.00940478854324844       695.0715216046323
0.00960192671152544       695.3701530363033
0.00979816278359587       695.6824502202812
0.009993795147248338      696.0084131565656
0.010189124956984269      696.3480418451566
0.010384454766719743      696.7013362860541
0.010580087130370853      697.0682964792584
0.010776323202439026      697.4489224247692
0.01097346137071288       697.8432141225867
0.011170281912174305      698.1967128173396
0.011366204645540166      698.5600169094565
0.011561526547508357      698.9331263989375
0.011756547339625332      699.3160412857821
0.011951568131742307      699.7087615699908
0.0121468900337105        700.1112872515631
0.012342812767076368      700.5236183304995
0.0125396333085378        700.9457548067996
0.012736771215691979      701.2195960899281
0.012933007030171178      701.4925515853116
0.013128639138602195      701.7646212929502
0.013323968694306592      702.0358052128441
0.013519298250011432      702.3061033449932
0.013714930358443784      702.5755156893971
0.0139111661729252        702.8440422460563
0.014108304080082462      703.1116830149706
0.014305241249097643      703.0993886719017
0.014501279037039759      703.0933908766776
0.014696714938233999      703.0936896292989
0.014891849199866372      703.1002849297649
0.015086983461498874      703.1131767780761
0.015282419362693495      703.1323651742323
0.01547845715063625       703.1578501182336
0.015675394319652317      703.1896316100798
0.015872325504405583      702.8196383224048
0.01606835738884011       702.4583371981761
0.016263787440706973      702.1057282373941
0.016458915880206496      701.7618114400588
0.016654044319705866      701.42658680617
0.016849474371572262      701.1000543357279
0.017045506256006017      700.7822140287324
0.017242437440758204      700.4730658851835
0.01743957168037589       699.9388766826985
0.017635803876907424      699.3963266055631
0.01783143240066149       698.8454156537773
0.018026758388388308      698.2861438273413
0.01822208437611492       697.718511126255
0.01841771289986836       697.1425175505182
0.018613945096398854      696.5581631001311
0.018811079336015085      695.9654477750937
0.019007894687321662      695.3433000704708
0.01920381230049143       694.7226521158626
0.019399129129200405      694.1035039112694
0.01959414487161704       693.4858554566907
0.01978916061403359       692.8697067521271
0.01998447744274231       692.2550577975779
0.020180395055911654      691.6419085930438
0.020377210407217645      691.0302591385245
0.020574360469106157      690.4884141764559
0.020770608273960874      689.9651608543039
0.020966252262493188      689.460499172069
0.021161593642948652      688.9744291297507
0.021356935023404883      688.5069507273491
0.021552579011939476      688.0580639648646
0.021748826816797996      687.6277688422966
0.021945976878691802      687.2160653596457
0.022142917141692885      686.9120579465136
0.022338957981867254      686.6484528391501
0.022534396907280062      686.4252500375546
0.02272953417907009       686.2424495417275
0.02292467145086023       686.1000513516686
0.02312011037627338       685.998055467378
0.02331615121644832       685.9364618888557
0.023513091479450195      685.9152706161015
0.023710025135207962      685.8505204973516
0.02390605945730262       685.8317071700502
0.024101491924457957      685.8588306341973
0.024296622768016963      685.931890889793
0.024491753611575823      686.0508879368371
0.02468718607873073       686.2158217753297
0.024883220400824673      686.4266924052707
0.025080154056581445      686.6834998266603
0.025277299572591536      687.0535885107375
0.025473542893039384      687.4424600291142
0.02566918243840792       687.8501143817897
0.025864519396400307      688.2765515687644
0.026059856354392216      688.7217715900382
0.026255495899759323      689.1857744456112
0.026451739220204794      689.6685601354833
0.026648884736211575      690.1701286596546
0.02684569473774919       690.7236160937124
0.027041607073256636      691.2818784851668
0.027236918672681274      691.8449158340176
0.027431929210095855      692.4127281402652
0.027626939747510428      692.9853154039095
0.027822251346935042      693.5626776249502
0.028018163682442445      694.1448148033875
0.028214973683980002      694.7317269392214
0.028412120943583204      695.2964682830171
0.028608365984047285      695.8504400851626
0.02880400723361381       696.3936423456583
0.02899934588786498       696.9260750645038
0.02919468454211669       697.4477382416993
0.029390325791684838      697.9586318772448
0.02958657083215161       698.4587559711402
0.029783718091758563      698.9481105233856
0.029980652759780888      699.2683147441986
0.030176688080480362      699.5912459113441
0.030372121537075924      699.9169040248222
0.03056725336547531       700.245289084633
0.030762385193874833      700.5764010907762
0.030957818650470807      700.9102400432523
0.031153853971170976      701.2468059420607
0.031350788639194264      701.5860987872019
