% Model:              brazing.mph
% Version:            COMSOL 5.3.0.223
% Date:               Oct 24 2018, 04:41
% Dimension:          1
% Nodes:              225
% Expressions:        1
% Description:        Line graph
% x                       Height
0                         690.6615232365007
2.1191841480136804E-4     690.5528312651182
4.2353438892247565E-4     690.4015354950997
6.349689892252786E-4      690.2076359264444
8.463435942227858E-4      689.9711325591528
0.001057779685752053      689.6920253932252
0.001269398639759412      689.3703144286608
0.001481321517995422      689.0059996654603
0.0017252358262731596     688.5230980384423
0.0019686866163640313     688.0051507632945
0.0022118589563155885     687.4521578400165
0.002454938550168189      686.8641192686085
0.0026981113144448556     686.2410350490709
0.0029415629522145732     685.5829051814029
0.0031854785295931678     684.889729665605
0.0034450106912723537     684.0462672492372
0.0037039863009040125     683.1678401014819
0.003962627412610827      682.2544482223391
0.0042211569424298        681.3060916118089
0.004479798094906585      680.3227702698916
0.004738773785972872      679.3044841965865
0.004998306069542035      678.2512333918942
0.005274868491808245      677.0278168047117
0.005550758931995686      675.7852890739587
0.0058262454501036105     674.523650199635
0.006101597285810183      673.2429001817409
0.006377084073678616      671.9430390202765
0.006652975052596927      670.6240667152413
0.006929538280995558      669.2859832666358
0.007206101510950518      667.903777619202
0.007481992491406557      666.5394710776582
0.007757479280801014      665.193063642004
0.00803283111802884       663.8645553122395
0.008308317637660222      662.5539460883651
0.008584208079380276      661.2612359703802
0.008860770503195153      659.9864249582852
0.009120302815147717      658.7928354639776
0.00937927853441616       657.643448202761
0.009637919714987194      656.5382631746347
0.009896449272866283      655.4772803795993
0.010155090412673047      654.460499817655
0.010414066050518256      653.4879214888009
0.01067359824059789       652.5595453930378
0.010917512776055054      651.715288397865
0.011160965100129169      650.9266024396271
0.011404139717480647      650.193487518324
0.01164722176512739       649.5159436339555
0.011890396591516505      648.8939707865223
0.012133849333188814      648.3275689760235
0.012377764493855997      647.8167382024598
0.01258968694000722       647.418754180795
0.012801305803204788      647.0654159100797
0.013012742322906452      646.7567233903135
0.013224118052332232      646.4926766214967
0.01343555464954572       646.2732756036294
0.013647173667633327      646.0985203367111
0.013859096345786744      645.9684108207423
0.014071014760598048      645.8995274617752
0.014282630734729056      645.8745168079055
0.01449406533504172       645.8933788591331
0.014705439940049088      645.9561136154582
0.014916876031588231      646.0627210768811
0.015128494985605482      646.2132012434008
0.015340417863851432      646.4075541150182
0.01558433217214941       646.653188471853
0.015827782962260412      646.9623252583349
0.016070955302232025      647.3349644744633
0.016314034896104664      647.7711061202388
0.0165572076604014        648.2707501956614
0.01680065929819124       648.8338967007305
0.01704457487559009       649.4605456354468
0.01730410703726679       650.1483229773683
0.017563082646895985      650.8802445487077
0.01782172375860034       651.6563103494643
0.018080253288416847      652.4765203796388
0.01833889444089119       653.3408746392312
0.018597870131955005      654.2493731282409
0.018857402415521692      655.2020158466685
0.019133964837753384      656.2284038976948
0.019409855277906563      657.2752389000419
0.019685341795980367      658.3425208537099
0.019960693631652874      659.4302497586986
0.0202361804194872        660.5384256150084
0.020512071398371242      661.6670484226385
0.020788634626735362      662.8161181815897
0.02106519785666259       663.9392311420395
0.021341088837091095      665.0501916501273
0.021616575626458134      666.1489997058521
0.02189192746365859       667.2356553092147
0.022167413983262562      668.3101584602151
0.02244330442495508       669.3725091588526
0.022719866848742224      670.4227074051279
0.022979399160698737      671.3120845151022
0.023238374879971102      672.1779740335825
0.023497016060546046      673.0203759605685
0.023755545618429033      673.8392902960601
0.02401418675823971       674.6347170400578
0.024273162396088833      675.406656192561
0.024532694586172417      676.1551077535701
0.02477660912165014       676.7816204784323
0.02502006144574469       677.3734301239186
0.025263236063116538      677.9305366900288
0.025506318110783622      678.4529401767628
0.025749492937193107      678.9406405841212
0.02599294567888585       679.393637912103
0.026236860839573585      679.8119321607091
0.026448783285734738      680.1197079908117
0.02666040214894219       680.4065934904007
0.026871838668653707      680.6725886594759
0.027083214398089334      680.9176934980374
0.027294650995312687      681.1419080060855
0.027506270013410168      681.3452321836196
0.02771819269157351       681.5276660306401
0.02793011110637494       681.6213470550904
0.028141727080496122      681.6921976071111
0.028353161680798985      681.7402176867022
0.028564536285796558      681.7654072938641
0.028775972377325904      681.7677664285966
0.028987591331333325      681.7472950908995
0.029199514209569403      681.703993280773
0.02944342851784522       681.517487916825
0.02968687930793418       681.2859265842541
0.02993005164788383       681.0093092830604
0.030173131241734534      680.6876360132441
0.0304163040060093        680.3209067748053
0.0306597556437771        679.9091215677435
0.030903671221153783      679.4522803920592
0.031163203382828072      678.8032692794982
0.03142217899245488       678.1064458330992
0.03168082010415685       677.361810052862
0.03193934963397098       676.569361938787
0.032197990786442934      675.729101490874
0.03245696647750436       674.8410287091227
0.032716498761068635      673.9051435935337
0.03299306118333142       672.7274086056873
0.03326895162351545       671.5275042134791
0.03354443814161999       670.3054304169091
0.03381978997732317       669.0611872159772
0.034095276765188226      667.7947746106838
0.03437116774410313       666.5061926010281
0.03464773097249833       665.1954411870108
0.034924294202460265      663.8100792388896
0.03520018518292322       662.4456571391324
0.03547567197232456       661.1021748877391
0.035751023809559274      659.7796324847101
0.036026510329197556      658.4780299300455
0.036302400770924524      657.1973672237445
0.03657896319474637       655.937644365808
0.036838495506703706      654.7558366311531
0.03709747122597688       653.6297518401016
0.037356112406552636      652.5593899926533
0.03761464196443644       651.5447510888084
0.03787328310424792       650.5858351285669
0.03813225874209787       649.6826421119287
0.03839179093218227       648.8351720388938
0.03863570546763781       648.0713091844244
0.038879157791710306      647.37601325844
0.03912233240906017       646.7492842609403
0.03936541445670531       646.1911221919257
0.039608589283092806      645.7015270513964
0.039852042024763494      645.2804988393516
0.04009595718542905       644.928037555792
0.040307879631580334      644.6601746006817
0.04051949849477797       644.447394265651
0.0407309350144797        644.2896965507
0.040942310743905544      644.1870814558288
0.04115374734111909       644.1395489810377
0.04136536635920676       644.1470991263259
0.04157728903736024       644.2097318916941
0.04178920745215007       644.3336634106798
0.042000823426259694      644.5109867334552
0.042212258026551035      644.7417018600197
0.04242363263153709       645.0258087903741
0.0426350687230549        645.3633075245182
0.042846687677050764      645.7541980624515
0.04305861055527523       646.1984804041745
0.04330252486354604       646.7407446637544
0.043545975653630026      647.354680743101
0.04378914799357473       648.0402886422139
0.044032227587420474      648.7975683610932
0.04427540035169028       649.6265198997393
0.04451885198945311       650.5271432581513
0.044762767566824783      651.4994384363301
0.045022299728516735      652.5677510503365
0.04528127533816108       653.6854487548293
0.045539916449880535      654.8525315498086
0.045798445979712124      656.0689994352745
0.046057087132201545      657.3348524112271
0.04631606282328052       658.6500904776659
0.046575595106862454      660.0147136345914
0.04685215752913061       661.4687935931121
0.04712804796931999       662.9463432371797
0.04740353448742985       664.4473625667945
0.04767888632313835       665.9718515819567
0.04795437311100872       667.5198102826663
0.048230264089928976      669.0912386689228
0.048506827318329566      670.6861367407267
0.04878339054829114       672.1962604018549
0.049059281528753745      673.6832771061049
0.04933476831815475       675.1471868534766
0.0496101201553891        676.5879896439703
0.04988560667502701       678.0056854775862
0.05016149711675364       679.4002743543235
0.050438059540575134      680.7717562741831
0.05069759185254397       681.8826639263481
0.05095656757182859       682.9427361734948
0.05121520875241573       683.9519730156228
0.05147373831031092       684.9103744527321
0.051732379450133786      685.8179404848233
0.05199135508799517       686.6746711118955
0.05225088727809108       687.4805663339494
0.0524948018135407        688.1132572343552
0.052738254137607306      688.6827827923803
0.05298142875495131       689.1891430080249
0.05322451080259058       689.6323378812889
0.0534676856289722        690.0123674121726
0.05371113837063701       690.3292316006754
0.05395505353129665       690.5829304467977
0.05416697597743634       690.7324039610127
0.054378594840622414      690.8357954842846
0.05459003136031263       690.8931050166136
0.05480140708972696       690.9043325579997
0.05501284368692898       690.8694781084432
0.0552244627050051        690.7885416679433
0.05543638538314697       690.6615232365007
