% Model:              brazing.mph
% Version:            COMSOL 5.3.0.223
% Date:               Oct 24 2018, 00:21
% Dimension:          1
% Nodes:              225
% Expressions:        1
% Description:        Line graph
% x                       Height
0                         573.2832834854458
2.1191841480136804E-4     573.2083818816791
4.2353438892247565E-4     573.0964357701853
6.349689892252786E-4      572.9474451509649
8.463435942227858E-4      572.7614100240174
0.001057779685752053      572.5383303893435
0.001269398639759412      572.2782062469424
0.001481321517995422      571.9810375968146
0.0017252358262731596     571.5833699587449
0.0019686866163640313     571.1554455480588
0.0022118589563155885     570.6972643647558
0.002454938550168189      570.2088264088363
0.0026981113144448556     569.6901316803006
0.0029415629522145732     569.1411801791479
0.0031854785295931678     568.5619719053789
0.0034450106912723537     567.852976747396
0.0037039863009040125     567.1127608877665
0.003962627412610827      566.3413243264905
0.0042211569424298        565.538667063568
0.004479798094906585      564.7047890989992
0.004738773785972872      563.8396904327835
0.004998306069542035      562.9433710649215
0.005274868491808245      561.9054042753013
0.005550758931995686      560.850279297799
0.0058262454501036105     559.777996132415
0.006101597285810183      558.6885547791491
0.006377084073678616      557.5819552380015
0.006652975052596927      556.4581975089717
0.006929538280995558      555.3172815920602
0.007206101510950518      554.1439172731566
0.007481992491406557      552.9861000208373
0.007757479280801014      551.8438298351023
0.00803283111802884       550.7171067159513
0.008308317637660222      549.605930663385
0.008584208079380276      548.5103016774026
0.008860770503195153      547.4302197580046
0.009120302815147717      546.4196767957571
0.00937927853441616       545.4473008659841
0.009637919714987194      544.5130919686856
0.009896449272866283      543.6170501038615
0.010155090412673047      542.7591752715124
0.010414066050518256      541.9394674716372
0.01067359824059789       541.1579267042368
0.010917512776055054      540.4460875282687
0.011160965100129169      539.782107425323
0.011404139717480647      539.1659863953998
0.01164722176512739       538.5977244384992
0.011890396591516505      538.0773215546214
0.012133849333188814      537.6047777437657
0.012377764493855997      537.1800930059328
0.01258968694000722       536.8497033617799
0.012801305803204788      536.5575506036622
0.013012742322906452      536.3036347315793
0.013224118052332232      536.0879557455316
0.01343555464954572       535.9105136455191
0.013647173667633327      535.7713084315413
0.013859096345786744      535.6703401035987
0.014071014760598048      535.6221680805469
0.014282630734729056      535.6113799955929
0.01449406533504172       535.6379758487367
0.014705439940049088      535.7019556399785
0.014916876031588231      535.8033193693185
0.015128494985605482      535.942067036756
0.015340417863851432      536.1181986422918
0.01558433217214941       536.336341829924
0.015827782962260412      536.6097739077436
0.016070955302232025      536.9384948757506
0.016314034896104664      537.322504733945
0.0165572076604014        537.7618034823272
0.01680065929819124       538.2563911208964
0.01704457487559009       538.8062676496533
0.01730410703726679       539.4066289394374
0.017563082646895985      540.0442042325529
0.01782172375860034       540.7189935289996
0.018080253288416847      541.4309968287776
0.01833889444089119       542.1802141318872
0.018597870131955005      542.9666454383276
0.018857402415521692      543.7902907480997
0.019133964837753384      544.6813536856721
0.019409855277906563      545.5888626823357
0.019685341795980367      546.5128177380906
0.019960693631652874      547.4532188529365
0.0202361804194872        548.410066026874
0.020512071398371242      549.3833592599022
0.020788634626735362      550.373098552022
0.02106519785666259       551.3524231115834
0.021341088837091095      552.3195483500086
0.021616575626458134      553.2744742672976
0.02189192746365859       554.2172008634502
0.022167413983262562      555.147728138467
0.02244330442495508       556.066056092347
0.022719866848742224      556.9721847250911
0.022979399160698737      557.7442481636456
0.023238374879971102      558.4932078667457
0.023497016060546046      559.2190638343914
0.023755545618429033      559.9218160665827
0.02401418675823971       560.6014645633198
0.024273162396088833      561.2580093246023
0.024532694586172417      561.8914503504307
0.02477660912165014       562.4257613038674
0.02502006144574469       562.9281790213124
0.025263236063116538      563.3987035027658
0.025506318110783622      563.8373347482274
0.025749492937193107      564.2440727576974
0.02599294567888585       564.6189175311754
0.026236860839573585      564.9618690686619
0.026448783285734738      565.2125333822293
0.02666040214894219       565.4445486224296
0.026871838668653707      565.6579147892628
0.027083214398089334      565.8526318827289
0.027294650995312687      566.0286999028285
0.027506270013410168      566.1861188495606
0.02771819269157351       566.3248887229258
0.02793011110637494       566.3861951150393
0.028141727080496122      566.4278367249673
0.028353161680798985      566.4498135527092
0.028564536285796558      566.4521255982655
0.028775972377325904      566.4347728616362
0.028987591331333325      566.397755342821
0.029199514209569403      566.3410730418201
0.02944342851784522       566.15789270528
0.02968687930793418       565.9362179627158
0.02993005164788383       565.6760488141274
0.030173131241734534      565.3773852595148
0.0304163040060093        565.0402272988784
0.0306597556437771        564.6645749322174
0.030903671221153783      564.2504281595326
0.031163203382828072      563.6695815337941
0.03142217899245488       563.0462547568322
0.03168082010415685       562.3804478286467
0.03193934963397098       561.6721607492375
0.032197990786442934      560.921393518605
0.03245696647750436       560.1281461367485
0.032716498761068635      559.2924186036687
0.03299306118333142       558.2562475894988
0.03326895162351545       557.1993950804135
0.03354443814161999       556.1218610764129
0.03381978997732317       555.0236455774968
0.034095276765188226      553.9047485836658
0.03437116774410313       552.7651700949191
0.03464773097249833       551.6049101112571
0.034924294202460265      550.398117965973
0.03520018518292322       549.2082716428265
0.03547567197232456       548.0353711418177
0.035751023809559274      546.8794164629463
0.036026510329197556      545.7404076062129
0.036302400770924524      544.618344571617
0.03657896319474637       543.5132273591586
0.036838495506703706      542.4825764978194
0.03709747122597688       541.5001564299216
0.037356112406552636      540.5659671554652
0.03761464196443644       539.6800086744502
0.03787328310424792       538.8422809868767
0.03813225874209787       538.0527840927446
0.03839179093218227       537.311517992054
0.03863570546763781       536.6416588793771
0.038879157791710306      536.031328059175
0.03912233240906017       535.4805255314476
0.03936541445670531       534.9892512961949
0.039608589283092806      534.5575053534171
0.039852042024763494      534.1852877031138
0.04009595718542905       533.8725983452853
0.040307879631580334      533.6326408222295
0.04051949849477797       533.4401532034642
0.0407309350144797        533.2951354889893
0.040942310743905544      533.197587678805
0.04115374734111909       533.1475097729112
0.04136536635920676       533.1449017713078
0.04157728903736024       533.1897636739949
0.04178920745215007       533.28733411248
0.042000823426259694      533.4308952794225
0.042212258026551035      533.6204471748224
0.04242363263153709       533.8559897986797
0.0426350687230549        534.1375231509949
0.042846687677050764      534.4650472317669
0.04305861055527523       534.8385620409966
0.04330252486354604       535.2917530018728
0.043545975653630026      535.8077073894216
0.04378914799357473       536.3864252036423
0.044032227587420474      537.0279064445353
0.04427540035169028       537.732151112101
0.04451885198945311       538.4991592063386
0.044762767566824783      539.3289307272487
0.045022299728516735      540.2393142728063
0.04528127533816108       541.1918685866871
0.045539916449880535      542.1865936688907
0.045798445979712124      543.2234895194176
0.046057087132201545      544.3025561382677
0.04631606282328052       545.4237935254407
0.046575595106862454      546.5872016809369
0.04685215752913061       547.8350743404316
0.04712804796931999       549.1025380524053
0.04740353448742985       550.3895928168585
0.04767888632313835       551.6962386337905
0.04795437311100872       553.0224755032021
0.048230264089928976      554.3683034250928
0.048506827318329566      555.7337223994627
0.04878339054829114       557.0458953044787
0.049059281528753745      558.3376242940224
0.04933476831815475       559.6089093680938
0.0496101201553891        560.8597505266932
0.04988560667502701       562.0901477698205
0.05016149711675364       563.3001010974754
0.050438059540575134      564.4896105096583
0.05069759185254397       565.4605194227206
0.05095656757182859       566.3877403571099
0.05121520875241573       567.2712733128259
0.05147373831031092       568.1111182898686
0.051732379450133786      568.9072752882385
0.05199135508799517       569.6597443079348
0.05225088727809108       570.3685253489582
0.0524948018135407        570.9278132558264
0.052738254137607306      571.4325519531775
0.05298142875495131       571.8827414410113
0.05322451080259058       572.278381719328
0.0534676856289722        572.6194727881278
0.05371113837063701       572.9060146474101
0.05395505353129665       573.1380072971755
0.05416697597743634       573.2769924271554
0.054378594840622414      573.3765670942025
0.05459003136031263       573.4367312983167
0.05480140708972696       573.4574850394981
0.05501284368692898       573.438828317747
0.0552244627050051        573.3807611330627
0.05543638538314697       573.2832834854458
