% Model:              brazing.mph
% Version:            COMSOL 5.3.0.223
% Date:               Oct 24 2018, 00:36
% Dimension:          1
% Nodes:              161
% Expressions:        1
% Description:        Line graph
% x                       Height
0                         671.7441731168166
1.9693985890610136E-4     671.705873390062
3.9298030043864816E-4     671.6795301578173
5.884188308682271E-4      671.6651434200822
7.835557095112735E-4      671.662713176857
9.786925881542028E-4      671.6722394281414
0.0011741311185834375     671.6937221739357
0.0013701715601154056     671.7271614142396
0.0015671114190207022     671.7725571490533
0.0017642608961497635     671.5349872336826
0.0019605081241513326     671.2926937356425
0.0021561515411346144     671.0456766549323
0.002351492352702621      670.7939359915525
0.0025468331642698894     670.537471745503
0.0027424765812509564     670.2762839167838
0.0029387238092488436     670.0103725053947
0.0031358732863727766     669.739737511336
0.0033326885608882563     669.3730026289609
0.0035286060983021257     669.0100372717492
0.0037239228519497995     668.6508414397015
0.003918938519653848      668.295415132817
0.004113954187357973      667.9437583510961
0.004309270941005876      667.5958710945389
0.004505188478420127      667.2517533631453
0.004702003752936137      666.9114051569153
0.004899138702461749      666.564479552357
0.005095371599302965      666.2330421792393
0.005291000816927052      665.917093037562
0.005486327495291825      665.616632127325
0.005681654173656831      665.3316594485284
0.0058772833912816074     665.0621750011722
0.0060735162881239745     664.8081787852564
0.006270651237651189      664.569670800781
0.006467582778148322      664.3923423222112
0.006663615013526554      664.2476246207572
0.006859045413116663      664.135517696419
0.0070541741987231454     664.0560215491965
0.007249302984329781      664.0091361790898
0.007444733383920351      663.9948615860986
0.007640765619299351      664.0131977702234
0.007837697159797551      664.0641447314639
0.008034634474091872      664.0545486460427
0.008230672405352359      664.0819905899374
0.008426108448549354      664.1464705631475
0.008621242851524007      664.2479885656737
0.008816377254498534      664.3865445975156
0.009011813297695145      664.5621386586732
0.009207851228955002      664.7747707491467
0.00940478854324844       665.0244408689359
0.00960192671152544       665.3405810887056
0.00979816278359587       665.6706856657725
0.009993795147248338      666.0147546001368
0.010189124956984269      666.3727878917986
0.010384454766719743      666.7447855407577
0.010580087130370853      667.130747547014
0.010776323202439026      667.5306739105678
0.01097346137071288       667.9445646314189
0.011170281912174305      668.319166756134
0.011366204645540166      668.7028942379134
0.011561526547508357      669.095747076757
0.011756547339625332      669.4977252726646
0.011951568131742307      669.9088288256364
0.0121468900337105        670.3290577356723
0.012342812767076368      670.7584120027725
0.0125396333085378        671.1968916269368
0.012736771215691979      671.4871260575428
0.012933007030171178      671.774826522599
0.013128639138602195      672.0599930221056
0.013323968694306592      672.342625556062
0.013519298250011432      672.6227241244687
0.013714930358443784      672.9002887273256
0.0139111661729252        673.1753193646327
0.014108304080082462      673.4478160363899
0.014305241249097643      673.4411641551615
0.014501279037039759      673.4383719399862
0.014696714938233999      673.4394393908642
0.014891849199866372      673.4443665077954
0.015086983461498874      673.4531532907797
0.015282419362693495      673.4657997398173
0.01547845715063625       673.4823058549081
0.015675394319652317      673.502671636052
0.015872325504405583      673.1226410985241
0.01606835738884011       672.7488881155275
0.016263787440706973      672.3814126870618
0.016458915880206496      672.0202148131273
0.016654044319705866      671.6652944937235
0.016849474371572262      671.316651728851
0.017045506256006017      670.9742865185093
0.017242437440758204      670.6381988626987
0.01743957168037589       670.076376261223
0.017635803876907424      669.5043052319572
0.01783143240066149       668.921985774901
0.018026758388388308      668.3294178900545
0.01822208437611492       667.7266015774178
0.01841771289986836       667.1135368369908
0.018613945096398854      666.4902236687733
0.018811079336015085      665.8566620727656
0.019007894687321662      665.1932351374003
0.01920381230049143       664.5311654842332
0.019399129129200405      663.8704531132641
0.01959414487161704       663.2110980244934
0.01978916061403359       662.5531002179206
0.01998447744274231       661.896459693546
0.020180395055911654      661.2411764513696
0.020377210407217645      660.5872504913913
0.020574360469106157      660.0051734013956
0.020770608273960874      659.4432709675007
0.020966252262493188      658.901543189706
0.021161593642948652      658.3799900680119
0.021356935023404883      657.8786116024182
0.021552579011939476      657.3974077929252
0.021748826816797996      656.9363786395326
0.021945976878691802      656.4955241422404
0.022142917141692885      656.165121876182
0.022338957981867254      655.8782505361175
0.022534396907280062      655.6349101220478
0.02272953417907009       655.4351006339721
0.02292467145086023       655.2788220718908
0.02312011037627338       655.1660744358037
0.02331615121644832       655.096857725711
0.023513091479450195      655.0711719416124
0.023710025135207962      655.0045252817102
0.02390605945730262       654.9869423871172
0.024101491924457957      655.0184232578328
0.024296622768016963      655.0989678938573
0.024491753611575823      655.2285762951907
0.02468718607873073       655.4072484618329
0.024883220400824673      655.634984393784
0.025080154056581445      655.911784091044
0.025277299572591536      656.3050219649655
0.025473542893039384      656.7187483469212
0.02566918243840792       657.1529632369106
0.025864519396400307      657.6076666349342
0.026059856354392216      658.0828585409917
0.026255495899759323      658.5785389550833
0.026451739220204794      659.0947078772087
0.026648884736211575      659.6313653073684
0.02684569473774919       660.2223316394225
0.027041607073256636      660.818082725069
0.027236918672681274      661.4186185643072
0.027431929210095855      662.0239391571376
0.027626939747510428      662.6340445035602
0.027822251346935042      663.2489346035748
0.028018163682442445      663.8686094571814
0.028214973683980002      664.4930690643802
0.028412120943583204      665.0952024833391
0.028608365984047285      665.6849633197243
0.02880400723361381       666.2623515735352
0.02899934588786498       666.8273672447722
0.02919468454211669       667.3800103334352
0.029390325791684838      667.920280839524
0.02958657083215161       668.448178763039
0.029783718091758563      668.9637041039798
0.029980652759780888      669.3095401802292
0.030176688080480362      669.6558684137227
0.030372121537075924      670.0026888044607
0.03056725336547531       670.3500013524431
0.030762385193874833      670.6978060576699
0.030957818650470807      671.0461029201412
0.031153853971170976      671.3948919398566
0.031350788639194264      671.7441731168166
