% Model:              brazing.mph
% Version:            COMSOL 5.3.0.223
% Date:               Oct 24 2018, 04:08
% Dimension:          1
% Nodes:              225
% Expressions:        1
% Description:        Line graph
% x                       Height
0                         715.8548945626818
2.02242572596226E-4       715.8272275370259
4.040113375593453E-4      715.7265046477786
6.054635867748898E-4      715.5527258949397
8.067573541103817E-4      715.3058912785094
0.0010080510467017985     714.9860007984877
0.001209503071861434      714.5930544548745
0.0014112714639836859     714.1270522476699
0.001613513515825394      713.5879941768738
0.001815803045808458      713.1027608699552
0.0020176184164428694     712.5638507685888
0.0022191170764546647     711.9712638727748
0.0024204572175778446     711.325000182513
0.00262179740518867       710.6250596978035
0.002823296204553664      709.8714424186463
0.0030251118070788686     709.0641483450414
0.003227401660948015      708.2031774769888
0.0034297372965816655     707.3714468014374
0.003631598594156443      706.4963871290809
0.0038331430353414214     705.5779984599192
0.004034528845142556      704.6162807939525
0.004235914622467191      703.6112341311805
0.004437458966299354      702.5628584716034
0.004639320101874085      701.4711538152212
0.004841655511239337      700.3361201620339
0.005043918276497792      699.3051927316645
0.005245706959792293      698.2593400292237
0.0054471789681153834     697.1985620547115
0.00564849245128538       696.1228588081277
0.005849805932728159      695.0322302894726
0.006051277935873691      693.9266764987458
0.00625306661055245       692.8061974359478
0.006455329363777148      691.6707931010782
0.0066576887471433525     690.5740353530462
0.0068595736811967985     689.4984967415152
0.007061141707903535      688.4441772664852
0.007262551112883539      687.4110769279563
0.007463960555734714      686.3991957259284
0.007665528695965537      685.4085336604013
0.00786741381892875       684.4390907313755
0.0080697734661485        683.4908669388504
0.008272395437950266      682.6398283844239
0.008474540847339949      681.814726626852
0.008676367906616744      681.0155616661344
0.008878035577337231      680.2423335022713
0.009079703197965442      679.4950421352627
0.009281530107084053      678.7736875651085
0.00948367526660416       678.0782697918088
0.009686296889411194      677.4087888153637
0.009888748367913874      676.9825061135485
0.010090724718905934      676.5999125268291
0.010292383720552634      676.2610080552051
0.010493883896490891      675.965792698677
0.010695384145210549      675.7142664572443
0.010897043365029401      675.5064293309073
0.011099020079070253      675.342281319666
0.011301472064648224      675.22182242352
0.011503924099142101      675.2257500864774
0.011705900863193036      675.2747869012571
0.011907560133099505      675.3689328678593
0.012109060430962503      675.5081879862839
0.012310560654077738      675.692552256531
0.012512219699917606      675.9220256786006
0.012714196091111104      676.1966082524924
0.012916647604829811      676.5162999782067
0.013119269382981878      677.0133672191023
0.013321414683399362      677.5465604058372
0.013523241722808088      678.1158795384116
0.013724909467002238      678.7213246168254
0.013926577258472442      679.3628956410787
0.014128404439597363      680.0405926111712
0.014330549975836581      680.754415527103
0.01453317208336263       681.5043643888745
0.014735531766219815      682.3396985255449
0.014937416940401616      683.1888467428433
0.015138985143475461      684.0518090407696
0.015340394656791169      684.928585419324
0.015541804135826716      685.8191758785061
0.015743372236141022      686.7235804183164
0.015945257239325793      687.6417990387546
0.01614761668334845       688.5738317398207
0.01634987940592303       689.6460064054862
0.016551668047823844      690.7026517436772
0.016753140015983766      691.743767754394
0.0169544534601584        692.7693544376361
0.017155766903708087      693.7794117934038
0.017357238869994664      694.7739398216974
0.017559027508778132      695.7529385225164
0.01776129022699866       696.7164078958609
0.017963625484858744      697.7159778143198
0.018165486461237414      698.6870301852136
0.018367030641941378      699.6295650085425
0.018568416255992027      700.5435822843064
0.018769801906169285      701.4290820125051
0.018971346195167795      702.2860641931389
0.019173207351754082      703.1145288262077
0.019375542861313405      703.9144759117114
0.019577832661189145      704.7461390468522
0.019779648217873542      705.5170387560742
0.019981146975907166      706.2271750393771
0.020182487123025287      706.8765478967609
0.020383827220813066      707.4651573282258
0.020585325830972126      707.9930033337718
0.020787141141585735      708.4600859133986
0.020989430597769934      708.8664050671066
0.021191672662378012      709.4011772559091
0.021393441061935803      709.8629281403079
0.02159489309031221       710.2516577203029
0.021796186783028852      710.567365995894
0.021997480548535182      710.8100529670812
0.022198932795108938      710.9797186338648
0.022400701557758636      711.0763629962444
0.02260294412950465       711.0999860542204
0.02280539620920995       711.1833314674917
0.023007373018156245      711.1908579716921
0.02320903233274668       711.1225655668218
0.023410532675187733      710.9784542528806
0.023612032942881025      710.7585240298685
0.023813692033404853      710.4627748977855
0.024015668469493705      710.0912068566319
0.024218120028423832      709.6438199064071
0.024420742013481003      709.2193398707004
0.02462288751935683       708.7321378544852
0.02482471476325633       708.1822138577614
0.02502638271145666       707.5695678805291
0.025228050706933344      706.8941999227882
0.025429878092549915      706.1561099845387
0.025632023834248962      705.3552980657807
0.025834646148682177      704.4917641665141
0.026037006051731277      703.6288565948992
0.026238891444565628      702.7186111561838
0.02644045986526205       701.7610278503678
0.026641869595683754      700.7561066774513
0.02684327929182417       699.7038476374344
0.027044847609757647      698.6042507303167
0.02724673283158932       697.4573159560987
0.027449092495796006      696.2630433147801
0.02765135518998453       695.1069180840549
0.027853143803698084      693.9392350938477
0.028054615743803996      692.7599943441586
0.028255929159991804      691.5691958349877
0.028457242575555555      690.3668395663348
0.028658714513790734      689.1529255382001
0.028860503124391312      687.9274537505836
0.029062765814231884      686.690424203485
0.029265100752448706      685.4634673097203
0.02946696141141544       684.2652215280596
0.029668505276199596      683.0956868585032
0.029869890575077548      681.954863301051
0.03007127591008127       680.8427508557029
0.030272819883157453      679.759349522459
0.03047468072232762       678.7046593013195
0.030677015912237836      677.6786801922839
0.030879305594778746      676.7437627520693
0.03108112103494649       675.8506630581898
0.031282619677010744      674.9993811106451
0.03148395970843373       674.1899169094354
0.0316852996905265        673.4222704545607
0.031886798184716555      672.6964417460207
0.032088613378814135      672.012430783816
0.03229090271766436       671.370237567946
0.03249314477533616       670.9453006346844
0.03269491316800606       670.5819006372832
0.03289636518952694       670.2800375757428
0.03309765887540427       670.0397114500629
0.033298952634071295      669.8609222602437
0.033500404873789524      669.743670006285
0.03370217362955133       669.687954688187
0.03390441619436107       669.6937763059494
0.03410686840969767       669.824462704049
0.03430884535332711       670.0171811112485
0.0345105048019665        670.2719315275482
0.034712005278138794      670.5887139529476
0.03491350567956333       670.9675283874471
0.03511516490413611       671.4083748310468
0.035317141474908095      671.911253283746
0.03551959316946952       672.4761637455456
0.035722216260139425      673.2086042876335
0.03592436286389621       673.9883512922531
0.036126191200505704      674.8154047594045
0.03632786023882611       675.6897646890875
0.03652952932442421       676.6114310813023
0.036731357802754806      677.5804039360487
0.03693350464234149       678.5966832533265
0.03713612806239678       679.6602690331364
0.03733848789969145       680.7991508064407
0.037540373227224554      681.9603264856504
0.03774194158292153       683.1437960707653
0.03794335124849304       684.3495595617859
0.03814476087977932       685.5776169587117
0.03834632913270157       686.8279682615431
0.03854821428921239       688.1006134702797
0.038750573887637245      689.3955525849218
0.03895283596123875       690.7713311049104
0.039154623958694366      692.1301863952115
0.039356095285438375      693.4721184558251
0.03955740808971597       694.7971272867512
0.03975872089337115       696.1052128879898
0.03996019221824938       697.396375259541
0.04016198021260023       698.6706144014046
0.04036424228186526       699.9279303135808
0.040566577948397485      701.1719330898968
0.040768439330593605      702.3744983130439
0.04096998391520435       703.5356259830221
0.04117136993220262       704.6553160998312
0.04137275598532357       705.7335686634714
0.04157430067821714       706.7703836739428
0.04177616224060133       707.7657611312451
0.0419784981588055        708.7197010353785
0.04218078754816035       709.6615528370531
0.04238260269718259       710.5291796647565
0.04258410104946696       711.3225815184884
0.04278544079179545       712.0417583982489
0.04298678048479618       712.686710304038
0.043188278689213704      713.2574372358557
0.043390093592177985      713.7539391937022
0.04359238263785921       714.1762161775773
0.043794623705544454      714.6644506683455
0.04399639111513442       715.0731423897909
0.04419784215819482       715.4022913419133
0.04439913486792596       715.6518975247127
0.044600427650446826      715.8219609381892
0.04480187891170468       715.9124815823429
0.045003646684386715      715.923459457174
0.04520588825921017       715.8548945626818
