% Model:              brazing.mph
% Version:            COMSOL 5.3.0.223
% Date:               Oct 24 2018, 06:33
% Dimension:          1
% Nodes:              225
% Expressions:        1
% Description:        Line graph
% x                       Height
0                         700.2113624398424
2.1191841480136804E-4     700.103308772965
4.2353438892247565E-4     699.9522205862885
6.349689892252786E-4      699.758097879813
8.463435942227858E-4      699.5209406535386
0.001057779685752053      699.2407489074653
0.001269398639759412      698.9175226415928
0.001481321517995422      698.5512618559214
0.0017252358262731596     698.065928195314
0.0019686866163640313     697.5447187024729
0.0022118589563155885     696.9876333773975
0.002454938550168189      696.3946722200886
0.0026981113144448556     695.7658352305461
0.0029415629522145732     695.1011224087694
0.0031854785295931678     694.400533754759
0.0034450106912723537     693.5501403663794
0.0037039863009040125     692.6642443084677
0.003962627412610827      691.7428455810235
0.0042211569424298        690.7859441840471
0.004479798094906585      689.7935401175387
0.004738773785972872      688.7656333814975
0.004998306069542035      687.7022239759244
0.005274868491808245      686.4683571773717
0.005550758931995686      685.2150359399277
0.0058262454501036105     683.9422602635922
0.006101597285810183      682.6500301483653
0.006377084073678616      681.3383455942475
0.006652975052596927      680.0072066012377
0.006929538280995558      678.6566131693369
0.007206101510950518      677.2616302382997
0.007481992491406557      675.8842424105774
0.007757479280801014      674.5244496861694
0.00803283111802884       673.1822520650761
0.008308317637660222      671.8576495472977
0.008584208079380276      670.5506421328336
0.008860770503195153      669.2612298216842
0.009120302815147717      668.0542586256425
0.00937927853441616       666.8914489530638
0.009637919714987194      665.7728008039484
0.009896449272866283      664.6983141782961
0.010155090412673047      663.6679890761072
0.010414066050518256      662.6818254973812
0.01067359824059789       661.7398234421184
0.010917512776055054      660.8833280068278
0.011160965100129169      660.0825060587041
0.011404139717480647      659.3373575977474
0.01164722176512739       658.6478826239578
0.011890396591516505      658.0140811373353
0.012133849333188814      657.4359531378796
0.012377764493855997      656.913498625591
0.01258968694000722       656.5054475708729
0.012801305803204788      656.1423129267105
0.013012742322906452      655.8240946931036
0.013224118052332232      655.5507928700525
0.01343555464954572       655.3224074575576
0.013647173667633327      655.1389384556178
0.013859096345786744      655.000385864234
0.014071014760598048      654.9226106802247
0.014282630734729056      654.8890363553776
0.01449406533504172       654.8996628896921
0.014705439940049088      654.9544902831689
0.014916876031588231      655.0535185358078
0.015128494985605482      655.1967476476084
0.015340417863851432      655.3841776185712
0.01558433217214941       655.6230402458192
0.015827782962260412      655.9254368333128
0.016070955302232025      656.2913673810524
0.016314034896104664      656.7208318890376
0.0165572076604014        657.213830357269
0.01680065929819124       657.7703627857459
0.01704457487559009       658.3904291744686
0.01730410703726679       659.07219127937
0.017563082646895985      659.7984902180513
0.01782172375860034       660.5693259905119
0.018080253288416847      661.384698596752
0.01833889444089119       662.244608036772
0.018597870131955005      663.149054310571
0.018857402415521692      664.0980374181499
0.019133964837753384      665.1206415268985
0.019409855277906563      666.164013778196
0.019685341795980367      667.2281541720423
0.019960693631652874      668.3130627084375
0.0202361804194872        669.418739387382
0.020512071398371242      670.5451842088748
0.020788634626735362      671.6923971729169
0.02106519785666259       672.8125050435233
0.021341088837091095      673.9206804533936
0.021616575626458134      675.0169234025278
0.02189192746365859       676.1012338909258
0.022167413983262562      677.1736119185879
0.02244330442495508       678.2340574855135
0.022719866848742224      679.2825705917032
0.022979399160698737      680.1715133446452
0.023238374879971102      681.037008871586
0.023497016060546046      681.8790571725257
0.023755545618429033      682.6976582474643
0.02401418675823971       683.4928120964025
0.024273162396088833      684.2645187193392
0.024532694586172417      685.0127781162752
0.02477660912165014       685.639490364279
0.02502006144574469       686.2315995024319
0.025263236063116538      686.7891055307333
0.025506318110783622      687.3120084491834
0.025749492937193107      687.8003082577826
0.02599294567888585       688.2540049565301
0.026236860839573585      688.6730985454266
0.026448783285734738      688.9819369556461
0.02666040214894219       689.2694065144257
0.026871838668653707      689.5355072217645
0.027083214398089334      689.780239077663
0.027294650995312687      690.0036020821218
0.027506270013410168      690.2055962351398
0.02771819269157351       690.3862215367177
0.02793011110637494       690.4797752556143
0.028141727080496122      690.5499128771286
0.028353161680798985      690.5966344012608
0.028564536285796558      690.6199398280107
0.028775972377325904      690.6198291573788
0.028987591331333325      690.5963023893643
0.029199514209569403      690.5493595239678
0.02944342851784522       690.3594906605421
0.02968687930793418       690.1244441821191
0.02993005164788383       689.8442200886986
0.030173131241734534      689.518818380281
0.0304163040060093        689.1482390568661
0.0306597556437771        688.7324821184536
0.030903671221153783      688.271547565044
0.031163203382828072      687.6198039783162
0.03142217899245488       686.9203829489969
0.03168082010415685       686.1732844770866
0.03193934963397098       685.3785085625847
0.032197990786442934      684.5360552054918
0.03245696647750436       683.6459244058072
0.032716498761068635      682.7081161635316
0.03299306118333142       681.5294927411485
0.03326895162351545       680.3290727948647
0.03354443814161999       679.1068563246804
0.03381978997732317       677.8628433305955
0.034095276765188226      676.5970338126103
0.03437116774410313       675.3094277707243
0.03464773097249833       674.0000252049377
0.034924294202460265      672.6148714172467
0.03520018518292322       671.2509975217329
0.03547567197232456       669.9084035183963
0.035751023809559274      668.5870894072372
0.036026510329197556      667.2870551882555
0.036302400770924524      666.0083008614508
0.03657896319474637       664.7508264268237
0.036838495506703706      663.5711811450575
0.03709747122597688       662.4475085986422
0.037356112406552636      661.3798087875775
0.03761464196443644       660.3680817118636
0.03787328310424792       659.4123273715006
0.03813225874209787       658.5125457664881
0.03839179093218227       657.6687368968265
0.03863570546763781       656.9091467808184
0.038879157791710306      656.2183895359201
0.03912233240906017       655.5964651621315
0.03936541445670531       655.0433736594528
0.039608589283092806      654.5591150278839
0.039852042024763494      654.1436892674245
0.04009595718542905       653.797096378075
0.040307879631580334      653.5349571968292
0.04051949849477797       653.3282507607571
0.0407309350144797        653.1769770698589
0.040942310743905544      653.0811361241348
0.04115374734111909       653.0407279235848
0.04136536635920676       653.0557524682083
0.04157728903736024       653.126209758006
0.04178920745215007       653.2580415506679
0.042000823426259694      653.4435976606879
0.042212258026551035      653.6828780880661
0.04242363263153709       653.9758828328024
0.0426350687230549        654.3226118948972
0.042846687677050764      654.7230652743499
0.04305861055527523       655.1772429711608
0.04330252486354604       655.7324428582546
0.043545975653630026      656.3592846332523
0.04378914799357473       657.0577682961541
0.044032227587420474      657.8278938469598
0.04427540035169028       658.6696612856697
0.04451885198945311       659.5830706122833
0.044762767566824783      660.5681218268011
0.045022299728516735      661.6507439024543
0.04528127533816108       662.7830412411204
0.045539916449880535      663.9650138427995
0.045798445979712124      665.1966617074919
0.046057087132201545      666.4779848351974
0.04631606282328052       667.8089832259157
0.046575595106862454      669.1896568796473
0.04685215752913061       670.6600742314823
0.04712804796931999       672.1539248615886
0.04740353448742985       673.6712087699663
0.04767888632313835       675.2119259566155
0.04795437311100872       676.7760764215362
0.048230264089928976      678.3636601647282
0.048506827318329566      679.9746771861918
0.04878339054829114       681.4984017403253
0.049059281528753745      682.998801681409
0.04933476831815475       684.475877009443
0.0496101201553891        685.9296277244273
0.04988560667502701       687.3600538263621
0.05016149711675364       688.7671553152469
0.050438059540575134      690.1509321910821
0.05069759185254397       691.2744809654836
0.05095656757182859       692.3466997171123
0.05121520875241573       693.3675884459685
0.05147373831031092       694.3371471520518
0.051732379450133786      695.2553758353628
0.05199135508799517       696.1222744959007
0.05225088727809108       696.9378431336662
0.0524948018135407        697.5800457729357
0.052738254137607306      698.1587101252908
0.05298142875495131       698.6738361907314
0.05322451080259058       699.1254239692578
0.0534676856289722        699.51347346087
0.05371113837063701       699.8379846655675
0.05395505353129665       700.098957583351
0.05416697597743634       700.2550204186418
0.054378594840622414      700.3644149210497
0.05459003136031263       700.4271410905742
0.05480140708972696       700.4431989272159
0.05501284368692898       700.4125884309747
0.0552244627050051        700.33530960185
0.05543638538314697       700.2113624398424
