% Model:              brazing.mph
% Version:            COMSOL 5.3.0.223
% Date:               Oct 24 2018, 04:50
% Dimension:          1
% Nodes:              225
% Expressions:        1
% Description:        Line graph
% x                       Height
0                         676.112590926607
2.1191841480136804E-4     676.0148784749623
4.2353438892247565E-4     675.8761526522713
6.349689892252786E-4      675.6964134585338
8.463435942227858E-4      675.4756608937499
0.001057779685752053      675.2138949579198
0.001269398639759412      674.9111156510431
0.001481321517995422      674.5673229731202
0.0017252358262731596     674.1097475235682
0.0019686866163640313     673.6183966307808
0.0022118589563155885     673.0932702947582
0.002454938550168189      672.5343685155005
0.0026981113144448556     671.9416912930077
0.0029415629522145732     671.3152386272794
0.0031854785295931678     670.6550105183161
0.0034450106912723537     669.8509974017757
0.0037039863009040125     669.0127663096141
0.003962627412610827      668.1403172418316
0.0042211569424298        667.2336501984282
0.004479798094906585      666.2927651794041
0.004738773785972872      665.3176621847588
0.004998306069542035      664.3083412144927
0.005274868491808245      663.1386010102595
0.005550758931995686      661.9499183180814
0.0058262454501036105     660.7422931379581
0.006101597285810183      659.5157254698896
0.006377084073678616      658.2702153138764
0.006652975052596927      657.0057626699178
0.006929538280995558      655.7223675380142
0.007206101510950518      654.3995249881494
0.007481992491406557      653.0935296459326
0.007757479280801014      651.8043815113637
0.00803283111802884       650.5320805844427
0.008308317637660222      649.2766268651701
0.008584208079380276      648.038020353545
0.008860770503195153      646.8162610495682
0.009120302815147717      645.6731000144878
0.00937927853441616       644.5721394012519
0.009637919714987194      643.5133792098601
0.009896449272866283      642.4968194403131
0.010155090412673047      641.5224600926107
0.010414066050518256      640.5903011667524
0.01067359824059789       639.7003426627388
0.010917512776055054      638.890538352725
0.011160965100129169      638.1339991239258
0.011404139717480647      637.4307249763407
0.01164722176512739       636.78071590997
0.011890396591516505      636.183971924814
0.012133849333188814      635.6404930208719
0.012377764493855997      635.1502791981443
0.01258968694000722       634.767977552042
0.012801305803204788      634.4283663694067
0.013012742322906452      634.1314456502382
0.013224118052332232      633.8772153945367
0.01343555464954572       633.6656756023025
0.013647173667633327      633.4968262735347
0.013859096345786744      633.370667408234
0.014071014760598048      633.3036307259988
0.014282630734729056      633.2784458147569
0.01449406533504172       633.2951126745081
0.014705439940049088      633.3536313052529
0.014916876031588231      633.454001706991
0.015128494985605482      633.5962238797221
0.015340417863851432      633.7802978234466
0.01558433217214941       634.011033876257
0.015827782962260412      634.3031604622474
0.016070955302232025      634.6566775814181
0.016314034896104664      635.0715852337688
0.0165572076604014        635.5478834193
0.01680065929819124       636.0855721380111
0.01704457487559009       636.6846513899025
0.01730410703726679       637.3412688558183
0.017563082646895985      638.0398652487312
0.01782172375860034       638.7804405686411
0.018080253288416847      639.5629948155481
0.01833889444089119       640.3875279894526
0.018597870131955005      641.2540400903538
0.018857402415521692      642.1625311182522
0.019133964837753384      643.1440431324617
0.019409855277906563      644.1446024281254
0.019685341795980367      645.164209005243
0.019960693631652874      646.2028628638151
0.0202361804194872        647.2605640038414
0.020512071398371242      648.3373124253216
0.020788634626735362      649.4331081282561
0.02106519785666259       650.5095862248131
0.021341088837091095      651.5736320579633
0.021616575626458134      652.6252456277064
0.02189192746365859       653.6644269340422
0.022167413983262562      654.6911759769714
0.02244330442495508       655.7054927564933
0.022719866848742224      656.7073772726083
0.022979399160698737      657.5591916846265
0.023238374879971102      658.3873264080455
0.023497016060546046      659.191781442865
0.023755545618429033      659.972556789085
0.02401418675823971       660.7296524467062
0.024273162396088833      661.4630684157274
0.024532694586172417      662.1728046961496
0.02477660912165014       662.7700109990177
0.02502006144574469       663.333423848303
0.025263236063116538      663.8630432440053
0.025506318110783622      664.3588691861247
0.025749492937193107      664.8209016746614
0.02599294567888585       665.2491407096148
0.026236860839573585      665.6435862909856
0.026448783285734738      665.933856939299
0.02666040214894219       666.2037113190086
0.026871838668653707      666.4531494301142
0.027083214398089334      666.6821712726157
0.027294650995312687      666.8907768465139
0.027506270013410168      667.0789661518079
0.02771819269157351       667.246739188498
0.02793011110637494       667.3305276948092
0.028141727080496122      667.3922055187239
0.028353161680798985      667.4317726602413
0.028564536285796558      667.4492291193618
0.028775972377325904      667.4445748960858
0.028987591331333325      667.4178099904123
0.029199514209569403      667.3689344023422
0.02944342851784522       667.1807160312976
0.02968687930793418       666.9499629540074
0.02993005164788383       666.6766751704712
0.030173131241734534      666.3608526806893
0.0304163040060093        666.0024954846617
0.0306597556437771        665.6016035823881
0.030903671221153783      665.1581769738689
0.031163203382828072      664.530620280945
0.03142217899245488       663.8570340437147
0.03168082010415685       663.137418262178
0.03193934963397098       662.3717729363348
0.032197990786442934      661.5600980661854
0.03245696647750436       660.7023936517292
0.032716498761068635      659.7986596929668
0.03299306118333142       658.666388255589
0.03326895162351545       657.5125061912902
0.03354443814161999       656.3370135000696
0.03381978997732317       655.139910181928
0.034095276765188226      653.9211962368655
0.03437116774410313       652.6808716648811
0.03464773097249833       651.4189364659759
0.034924294202460265      650.0930670102967
0.03520018518292322       648.7867460156267
0.03547567197232456       647.4999734819652
0.035751023809559274      646.2327494093126
0.036026510329197556      644.9850737976692
0.036302400770924524      643.7569466470343
0.03657896319474637       642.5483679574083
0.036838495506703706      641.4176334889673
0.03709747122597688       640.340297462282
0.037356112406552636      639.3163598773526
0.03761464196443644       638.3458207341789
0.03787328310424792       637.4286800327612
0.03813225874209787       636.564937773099
0.03839179093218227       635.7545939551927
0.03863570546763781       635.0240946920762
0.038879157791710306      634.3595459421049
0.03912233240906017       633.7609477052783
0.03936541445670531       633.2282999815968
0.039608589283092806      632.7616027710606
0.039852042024763494      632.3608560736689
0.04009595718542905       632.0260598894224
0.040307879631580334      631.7711551858871
0.04051949849477797       631.569059401498
0.0407309350144797        631.4197725362549
0.040942310743905544      631.323294590158
0.04115374734111909       631.2796255632077
0.04136536635920676       631.2887654554032
0.04157728903736024       631.3507142667452
0.04178920745215007       631.4714095378761
0.042000823426259694      631.6432468187086
0.042212258026551035      631.8662261092428
0.04242363263153709       632.1403474094789
0.0426350687230549        632.4656107194168
0.042846687677050764      632.842016039056
0.04305861055527523       633.2695633683973
0.04330252486354604       633.789149002303
0.043545975653630026      634.3779417076306
0.04378914799357473       635.03594148438
0.044032227587420474      635.7631483325514
0.04427540035169028       636.5595622521449
0.04451885198945311       637.4251832431601
0.044762767566824783      638.3600113055973
0.045022299728516735      639.386410213623
0.04528127533816108       640.4598270047694
0.045539916449880535      641.5802616790369
0.045798445979712124      642.747714236425
0.046057087132201545      643.9621846769342
0.04631606282328052       645.223673000564
0.046575595106862454      646.5321792073147
0.04685215752913061       647.9298560205941
0.04712804796931999       649.3495695377778
0.04740353448742985       650.7913197588657
0.04767888632313835       652.2551066838579
0.04795437311100872       653.7409303127548
0.048230264089928976      655.2487906455556
0.048506827318329566      656.7786876822609
0.04878339054829114       658.2337996399167
0.049059281528753745      659.6663676745133
0.04933476831815475       661.0763917860505
0.0496101201553891        662.4638719745286
0.04988560667502701       663.8288082399478
0.05016149711675364       665.1712005823075
0.050438059540575134      666.4910490016081
0.05069759185254397       667.5635260193623
0.05095656757182859       668.5872298650113
0.05121520875241573       669.5621605385552
0.05147373831031092       670.4883180399944
0.051732379450133786      671.3657023693287
0.05199135508799517       672.1943135265578
0.05225088727809108       672.9741515116822
0.0524948018135407        673.5879508588633
0.052738254137607306      674.1411936456379
0.05298142875495131       674.6338798720057
0.05322451080259058       675.0660095379667
0.0534676856289722        675.4375826435213
0.05371113837063701       675.7485991886689
0.05395505353129665       675.9990591734098
0.05416697597743634       676.1480702814983
0.054378594840622414      676.2528172941857
0.05459003136031263       676.3133002114719
0.05480140708972696       676.3295190333571
0.05501284368692898       676.3014737598417
0.0552244627050051        676.2291643909248
0.05543638538314697       676.112590926607
