% Model:              brazing.mph
% Version:            COMSOL 5.3.0.223
% Date:               Oct 24 2018, 06:00
% Dimension:          1
% Nodes:              225
% Expressions:        1
% Description:        Line graph
% x                       Height
0                         759.5925310426181
2.1191841480136804E-4     759.477933206802
4.2353438892247565E-4     759.3183204280543
6.349689892252786E-4      759.113692706375
8.463435942227858E-4      758.8640500417636
0.001057779685752053      758.5693924342207
0.001269398639759412      758.2297198837458
0.001481321517995422      757.8450323903395
0.0017252358262731596     757.337185545032
0.0019686866163640313     756.7901434955749
0.0022118589563155885     756.2039062419686
0.002454938550168189      755.5784737842129
0.0026981113144448556     754.9138461223082
0.0029415629522145732     754.210023256254
0.0031854785295931678     753.4670051860504
0.0034450106912723537     752.5745118801541
0.0037039863009040125     751.6439903148006
0.003962627412610827      750.6754404899898
0.0042211569424298        749.6688624057219
0.004479798094906585      748.6242560619972
0.004738773785972872      747.5416214588149
0.004998306069542035      746.4209585961758
0.005274868491808245      745.129304244983
0.005550758931995686      743.8165980207689
0.0058262454501036105     742.4828399235333
0.006101597285810183      741.1280299532764
0.006377084073678616      739.7521681099984
0.006652975052596927      738.3552543936985
0.006929538280995558      736.9372888043777
0.007206101510950518      735.4766243198308
0.007481992491406557      734.0327165054888
0.007757479280801014      732.6055653613518
0.00803283111802884       731.1951708874197
0.008308317637660222      729.8015330836928
0.008584208079380276      728.4246519501704
0.008860770503195153      727.0645274868532
0.009120302815147717      725.7937541681482
0.00937927853441616       724.5676096790576
0.009637919714987194      723.3860940195805
0.009896449272866283      722.2492071897178
0.010155090412673047      721.1569491894694
0.010414066050518256      720.1093200188348
0.01067359824059789       719.1063196778143
0.010917512776055054      718.1952403030222
0.011160965100129169      717.341175146131
0.011404139717480647      716.544124207141
0.01164722176512739       715.8040874860515
0.011890396591516505      715.1210649828632
0.012133849333188814      714.4950566975756
0.012377764493855997      713.9260626301891
0.01258968694000722       713.4786305549117
0.012801305803204788      713.0777201892737
0.013012742322906452      712.7233315332749
0.013224118052332232      712.4154645869154
0.01343555464954572       712.1541193501956
0.013647173667633327      711.939295823115
0.013859096345786744      711.7709940056739
0.014071014760598048      711.6635784303388
0.014282630734729056      711.6021314815778
0.01449406533504172       711.5866531593907
0.014705439940049088      711.6171434637777
0.014916876031588231      711.693602394739
0.015128494985605482      711.8160299522739
0.015340417863851432      711.984426136383
0.01558433217214941       712.2054348511906
0.015827782962260412      712.4912783475162
0.016070955302232025      712.8419566253601
0.016314034896104664      713.257469684722
0.0165572076604014        713.737817525602
0.01680065929819124       714.283000148
0.01704457487559009       714.8930175519163
0.01730410703726679       715.5681125549789
0.017563082646895985      716.2894695066375
0.01782172375860034       717.057088406892
0.018080253288416847      717.8709692557422
0.01833889444089119       718.7311120531889
0.018597870131955005      719.6375167992312
0.018857402415521692      720.5901834938695
0.019133964837753384      721.6199754137285
0.019409855277906563      722.6715775679771
0.019685341795980367      723.7449899566147
0.019960693631652874      724.840212579642
0.0202361804194872        725.9572454370588
0.020512071398371242      727.0960885288646
0.020788634626735362      728.25674185506
0.02106519785666259       729.39027899612
0.021341088837091095      730.5121276985301
0.021616575626458134      731.6222879622902
0.02189192746365859       732.7207597874005
0.022167413983262562      733.8075431738612
0.02244330442495508       734.8826381216716
0.022719866848742224      735.9460446308323
0.022979399160698737      736.8551612056194
0.023238374879971102      737.7400215146304
0.023497016060546046      738.6006255578651
0.023755545618429033      739.4369733353236
0.02401418675823971       740.2490648470063
0.024273162396088833      741.0369000929122
0.024532694586172417      741.8004790730423
0.02477660912165014       742.4448148763485
0.02502006144574469       743.0543991492907
0.025263236063116538      743.6292318918692
0.025506318110783622      744.1693131040838
0.025749492937193107      744.674642785935
0.02599294567888585       745.1452209374221
0.026236860839573585      745.5810475585457
0.026448783285734738      745.9059674690977
0.02666040214894219       746.2073409655817
0.026871838668653707      746.4851680479977
0.027083214398089334      746.7394487163457
0.027294650995312687      746.9701829706262
0.027506270013410168      747.1773708108384
0.02771819269157351       747.3610122369829
0.02793011110637494       747.4634460488676
0.028141727080496122      747.5398312491807
0.028353161680798985      747.5901678379222
0.028564536285796558      747.6144558150919
0.028775972377325904      747.6126951806903
0.028987591331333325      747.5848859347165
0.029199514209569403      747.5310280771712
0.02944342851784522       747.3348176829536
0.02968687930793418       747.0924200398111
0.02993005164788383       746.8038351477431
0.030173131241734534      746.4690630067499
0.0304163040060093        746.0881036168319
0.0306597556437771        745.6609569779882
0.030903671221153783      745.1876230902195
0.031163203382828072      744.5267110270465
0.03142217899245488       743.8172027922274
0.03168082010415685       743.0590983857621
0.03193934963397098       742.2523978076506
0.032197990786442934      741.3971010578932
0.03245696647750436       740.4932081364892
0.032716498761068635      739.5407190434394
0.03299306118333142       738.3514585026509
0.03326895162351545       737.1403810806016
0.03354443814161999       735.907486777292
0.03381978997732317       734.6527755927217
0.034095276765188226      733.3762475268911
0.03437116774410313       732.0779025797997
0.03464773097249833       730.7577407514478
0.034924294202460265      729.3620059412199
0.03520018518292322       727.9879439615664
0.03547567197232456       726.6355548124877
0.035751023809559274      725.3048384939835
0.036026510329197556      723.9957950060543
0.036302400770924524      722.7084243486994
0.03657896319474637       721.4427265219193
0.036838495506703706      720.2578810830897
0.03709747122597688       719.1300713417196
0.037356112406552636      718.0592972978088
0.03761464196443644       717.0455589513576
0.03787328310424792       716.0888563023664
0.03813225874209787       715.1891893508341
0.03839179093218227       714.3465580967617
0.03863570546763781       713.5915405594035
0.038879157791710306      712.907108069044
0.03912233240906017       712.2932606256835
0.03936541445670531       711.7499982293218
0.039608589283092806      711.2773208799593
0.039852042024763494      710.8752285775955
0.04009595718542905       710.5437213222307
0.040307879631580334      710.2971833578804
0.04051949849477797       710.1079122367141
0.0407309350144797        709.9759079587318
0.040942310743905544      709.9011705239337
0.04115374734111909       709.8836999323202
0.04136536635920676       709.9234961838902
0.04157728903736024       710.0205592786444
0.04178920745215007       710.1803262134848
0.042000823426259694      710.3955671271976
0.042212258026551035      710.6662820197823
0.04242363263153709       710.9924708912395
0.0426350687230549        711.3741337415692
0.042846687677050764      711.8112705707708
0.04305861055527523       712.303881378845
0.04330252486354604       712.9082995817365
0.043545975653630026      713.5852777555748
0.04378914799357473       714.3348159003602
0.044032227587420474      715.1569140160923
0.04427540035169028       716.0515721027717
0.04451885198945311       717.0187901603977
0.044762767566824783      718.0585681889706
0.045022299728516735      719.2025299305136
0.04528127533816108       720.397217438658
0.045539916449880535      721.6426307134036
0.045798445979712124      722.9387697547505
0.046057087132201545      724.2856345626991
0.04631606282328052       725.6832251372489
0.046575595106862454      727.1315414784001
0.04685215752913061       728.6744150196797
0.04712804796931999       730.2399340210977
0.04740353448742985       731.8280984826547
0.04767888632313835       733.43890840435
0.04795437311100872       735.0723637861843
0.048230264089928976      736.728464628157
0.048506827318329566      738.4072109302685
0.04878339054829114       739.9937806871875
0.049059281528753745      741.5551222618376
0.04933476831815475       743.0912356542187
0.0496101201553891        744.6021208643313
0.04988560667502701       746.0877778921752
0.05016149711675364       747.5482067377498
0.050438059540575134      748.9834074010558
0.05069759185254397       750.1590958342252
0.05095656757182859       751.2806007422856
0.05121520875241573       752.3479221252375
0.05147373831031092       753.36105998308
0.051732379450133786      754.3200143158143
0.05199135508799517       755.2247851234391
0.05225088727809108       756.0753724059554
0.0524948018135407        756.7503816444208
0.052738254137607306      757.359613172713
0.05298142875495131       757.9030669908319
0.05322451080259058       758.3807430987775
0.0534676856289722        758.7926414965503
0.05371113837063701       759.1387621841496
0.05395505353129665       759.4191051615759
0.05416697597743634       759.5918227617748
0.054378594840622414      759.7152262038616
0.05459003136031263       759.7893154878367
0.05480140708972696       759.8140906136997
0.05501284368692898       759.7895515814511
0.0552244627050051        759.7156983910905
0.05543638538314697       759.5925310426181
