% Model:              brazing.mph
% Version:            COMSOL 5.3.0.223
% Date:               Oct 24 2018, 03:29
% Dimension:          1
% Nodes:              161
% Expressions:        1
% Description:        Line graph
% x                       Height
0                         710.0850394632043
1.9693985890610136E-4     710.0333725167533
3.9298030043864816E-4     709.996162747926
5.884188308682271E-4      709.9734101567227
7.835557095112735E-4      709.9651147431435
9.786925881542028E-4      709.9712765071882
0.0011741311185834375     709.9918954488569
0.0013701715601154056     710.0269715681494
0.0015671114190207022     710.076504865066
0.0017642608961497635     709.8416594450466
0.0019605081241513326     709.6032110695214
0.0021561515411346144     709.3611597384897
0.002351492352702621      709.1155054519521
0.0025468331642698894     708.8662482099082
0.0027424765812509564     708.6133880123584
0.0029387238092488436     708.3569248593022
0.0031358732863727766     708.09685875074
0.0033326885608882563     707.7431777025567
0.0035286060983021257     707.3933479214197
0.0037239228519497995     707.0473694073289
0.003918938519653848      706.7052421602843
0.004113954187357973      706.366966180286
0.004309270941005876      706.0325414673339
0.004505188478420127      705.7019680214281
0.004702003752936137      705.3752458425686
0.004899138702461749      705.0430540337574
0.005095371599302965      704.7255880755343
0.005291000816927052      704.4228479678999
0.005486327495291825      704.1348337108536
0.005681654173656831      703.8615453043958
0.0058772833912816074     703.6029827485265
0.0060735162881239745     703.3591460432455
0.006270651237651189      703.1300351885528
0.006467582778148322      702.9623780929063
0.006663615013526554      702.8258095212117
0.006859045413116663      702.7203294734685
0.0070541741987231454     702.6459379496771
0.007249302984329781      702.6026349498374
0.007444733383920351      702.590420473949
0.007640765619299351      702.6092945220126
0.007837697159797551      702.6592570940278
0.008034634474091872      702.6453779202205
0.008230672405352359      702.6672112498405
0.008426108448549354      702.7247570828875
0.008621242851524007      702.8180154193618
0.008816377254498534      702.9469862592632
0.009011813297695145      703.1116696025917
0.009207851228955002      703.3120654493473
0.00940478854324844       703.5481737995301
0.00960192671152544       703.8508135537643
0.00979816278359587       704.1668002010285
0.009993795147248338      704.4961337413224
0.010189124956984269      704.838814174646
0.010384454766719743      705.1948415009995
0.010580087130370853      705.5642157203827
0.010776323202439026      705.9469368327957
0.01097346137071288       706.3430048382386
0.011170281912174305      706.7001652549704
0.011366204645540166      707.0668197091783
0.011561526547508357      707.4429682008622
0.011756547339625332      707.8286107300221
0.011951568131742307      708.2237472966581
0.0121468900337105        708.6283779007704
0.012342812767076368      709.0425025423585
0.0125396333085378        709.4661212214228
0.012736771215691979      709.7436442720041
0.012933007030171178      710.0197755090074
0.013128639138602195      710.2945149324325
0.013323968694306592      710.5678625422797
0.013519298250011432      710.8398183385488
0.013714930358443784      711.1103823212397
0.0139111661729252        711.3795544903527
0.014108304080082462      711.6473348458876
0.014305241249097643      711.6360836140751
0.014501279037039759      711.631168286416
0.014696714938233999      711.6325888629107
0.014891849199866372      711.640345343559
0.015086983461498874      711.654437728361
0.015282419362693495      711.6748660173165
0.01547845715063625       711.7016302104258
0.015675394319652317      711.7347303076887
0.015872325504405583      711.3623158378215
0.01606835738884011       710.9987975819913
0.016263787440706973      710.644175540198
0.016458915880206496      710.2984497124419
0.016654044319705866      709.9616200987226
0.016849474371572262      709.6336866990403
0.017045506256006017      709.3146495133949
0.017242437440758204      709.0045085417865
0.01743957168037589       708.4685507685996
0.017635803876907424      707.9239096951604
0.01783143240066149       707.3705853214691
0.018026758388388308      706.8085776475256
0.01822208437611492       706.2378866733297
0.01841771289986836       705.6585123988817
0.018613945096398854      705.0704548241815
0.018811079336015085      704.4737139492291
0.019007894687321662      703.8498488936689
0.01920381230049143       703.2271322879179
0.019399129129200405      702.6055641319763
0.01959414487161704       701.985144425844
0.01978916061403359       701.3658731695211
0.01998447744274231       700.7477503630076
0.020180395055911654      700.1307760063034
0.020377210407217645      699.5149500994086
0.020574360469106157      698.9713144221732
0.020770608273960874      698.446031957532
0.020966252262493188      697.9391027054853
0.021161593642948652      697.450526666033
0.021356935023404883      696.980303839175
0.021552579011939476      696.5284342249114
0.021748826816797996      696.0949178232419
0.021945976878691802      695.6797546341669
0.022142917141692885      695.3749528622021
0.022338957981867254      695.1106233077061
0.022534396907280062      694.8867659706788
0.02272953417907009       694.7033808511201
0.02292467145086023       694.5604679490302
0.02312011037627338       694.4580272644092
0.02331615121644832       694.3960587972568
0.023513091479450195      694.3745625475732
0.023710025135207962      694.3079456036982
0.02390605945730262       694.2874241231515
0.024101491924457957      694.3129981059334
0.024296622768016963      694.3846675520441
0.024491753611575823      694.5024324614833
0.02468718607873073       694.6662928342512
0.024883220400824673      694.8762486703475
0.025080154056581445      695.1322999697726
0.025277299572591536      695.5046421346536
0.025473542893039384      695.8955089613157
0.02566918243840792       696.3049004497583
0.025864519396400307      696.7328165999816
0.026059856354392216      697.1792574119856
0.026255495899759323      697.6442228857703
0.026451739220204794      698.1277130213358
0.026648884736211575      698.629727818682
0.02684569473774919       699.1855104791139
0.027041607073256636      699.7458599018834
0.027236918672681274      700.3107760869907
0.027431929210095855      700.8802590344359
0.027626939747510428      701.4543087442186
0.027822251346935042      702.0329252163391
0.028018163682442445      702.6161084507972
0.028214973683980002      703.2038584475932
0.028412120943583204      703.7714916910522
0.028608365984047285      704.327977245072
0.02880400723361381       704.8733151096526
0.02899934588786498       705.4075052847941
0.02919468454211669       705.9305477704963
0.029390325791684838      706.4424425667593
0.02958657083215161       706.943189673583
0.029783718091758563      707.4327890909676
0.029980652759780888      707.754233827694
0.030176688080480362      708.0785604386501
0.030372121537075924      708.4057689238355
0.03056725336547531       708.7358592832503
0.030762385193874833      709.0688315168946
0.030957818650470807      709.4046856247684
0.031153853971170976      709.7434216068716
0.031350788639194264      710.0850394632043
