% Model:              brazing.mph
% Version:            COMSOL 5.3.0.223
% Date:               Oct 24 2018, 06:22
% Dimension:          1
% Nodes:              225
% Expressions:        1
% Description:        Line graph
% x                       Height
0                         711.1173644874029
2.02242572596226E-4       711.0989480226112
4.040113375593453E-4      711.0111866974784
6.054635867748898E-4      710.854080512004
8.067573541103817E-4      710.6276294661884
0.0010080510467017985     710.3318335600316
0.001209503071861434      709.9666927935333
0.0014112714639836859     709.532207166694
0.001613513515825394      709.0283766795131
0.001815803045808458      708.5782548133836
0.0020176184164428694     708.0771412948486
0.0022191170764546647     707.5250361239081
0.0024204572175778446     706.921939300562
0.00262179740518867       706.2678508248105
0.002823296204553664      705.5627706966534
0.0030251118070788686     704.8066989160907
0.003227401660948015      703.9996354831228
0.0034297372965816655     703.2186499493491
0.003631598594156443      702.3967231098762
0.0038331430353414214     701.533854964704
0.004034528845142556      700.6300455138326
0.004235914622467191      699.6852947572619
0.004437458966299354      698.6996026949919
0.004639320101874085      697.6729693270225
0.004841655511239337      696.605394653354
0.005043918276497792      695.6352428021343
0.005245706959792293      694.651079478372
0.0054471789681153834     693.6529046820674
0.00564849245128538       692.6407184132203
0.005849805932728159      691.6145206718307
0.006051277935873691      690.574311457899
0.00625306661055245       689.5200907714242
0.006455329363777148      688.4518586124075
0.0066576887471433525     687.4182377167583
0.0068595736811967985     686.4043942012602
0.007061141707903535      685.410328065913
0.007262551112883539      684.4360393107166
0.007463960555734714      683.4815279356714
0.007665528695965537      682.5467939407768
0.00786741381892875       681.6318373260334
0.0080697734661485        680.7366580914407
0.008272395437950266      679.9324760487139
0.008474540847339949      679.1524360872373
0.008676367906616744      678.3965382070111
0.008878035577337231      677.6647824080352
0.009079703197965442      676.9571686903096
0.009281530107084053      676.2736970538344
0.00948367526660416       675.6143674986095
0.009686296889411194      674.9791800246347
0.009888748367913874      674.5731370762489
0.010090724718905934      674.2080148465334
0.010292383720552634      673.8838133354881
0.010493883896490891      673.6005325431129
0.010695384145210549      673.3581724694078
0.010897043365029401      673.1567331143732
0.011099020079070253      672.9962144780087
0.011301472064648224      672.8766165603143
0.011503924099142101      672.8727326309175
0.011705900863193036      672.9111700210902
0.011907560133099505      672.9919287308326
0.012109060430962503      673.1150087601445
0.012310560654077738      673.2804101090259
0.012512219699917606      673.488132777477
0.012714196091111104      673.7381767654975
0.012916647604829811      674.0305420730879
0.013119269382981878      674.4902951644576
0.013321414683399362      674.9839199127656
0.013523241722808088      675.5114163180118
0.013724909467002238      676.0727843801963
0.013926577258472442      676.6680240993189
0.014128404439597363      677.29713547538
0.014330549975836581      677.9601185083791
0.01453317208336263       678.6569731983165
0.014735531766219815      679.4327798699242
0.014937416940401616      680.2217551539999
0.015138985143475461      681.0238990505437
0.015340394656791169      681.8392115595556
0.015541804135826716      682.6676926810355
0.015743372236141022      683.5093424149837
0.015945257239325793      684.3641607614
0.01614761668334845       685.232147720284
0.01634987940592303       686.2321137863111
0.016551668047823844      687.2177300761923
0.016753140015983766      688.1889965899277
0.0169544534601584        689.1459133275174
0.017155766903708087      690.0884802889614
0.017357238869994664      691.0166974742593
0.017559027508778132      691.9305648834115
0.01776129022699866       692.8300825164179
0.017963625484858744      693.7622472993784
0.018165486461237414      694.6677612329936
0.018367030641941378      695.5466243172634
0.018568416255992027      696.398836552188
0.018769801906169285      697.2243979377671
0.018971346195167795      698.0233084740009
0.019173207351754082      698.7955681608895
0.019375542861313405      699.5411769984327
0.019577832661189145      700.3152844800527
0.019779648217873542      701.0321578419013
0.019981146975907166      701.6917970839783
0.020182487123025287      702.2942022062837
0.020383827220813066      702.8393732088175
0.020585325830972126      703.32731009158
0.020787141141585735      703.7580128545708
0.020989430597769934      704.1314814977901
0.021191672662378012      704.6285028094669
0.021393441061935803      705.0563931599401
0.02159489309031221       705.4151525492096
0.021796186783028852      705.7047809772755
0.021997480548535182      705.9252784441377
0.022198932795108938      706.0766449497966
0.022400701557758636      706.1588804942515
0.02260294412950465       706.171985077503
0.02280539620920995       706.2403311332213
0.023007373018156245      706.2369967469572
0.02320903233274668       706.1619819187107
0.023410532675187733      706.0152866484818
0.023612032942881025      705.7969109362706
0.023813692033404853      705.506854782077
0.024015668469493705      705.145118185901
0.024218120028423832      704.7117011477426
0.024420742013481003      704.304724920366
0.02462288751935683       703.8391408237893
0.02482471476325633       703.3149488580125
0.02502638271145666       702.7321490230354
0.025228050706933344      702.0907413188582
0.025429878092549915      701.390725745481
0.025632023834248962      700.6321023029035
0.025834646148682177      699.814870991126
0.026037006051731277      698.9974245283909
0.026238891444565628      698.1357486748562
0.02644045986526205       697.2298434305221
0.026641869595683754      696.2797087953885
0.02684327929182417       695.2853447694554
0.027044847609757647      694.2467513527226
0.02724673283158932       693.1639285451904
0.027449092495796006      692.0368763468587
0.02765135518998453       690.9468810664425
0.027853143803698084      689.846702198983
0.028054615743803996      688.7363397444802
0.028255929159991804      687.6157937029342
0.028457242575555555      686.4850640743447
0.028658714513790734      685.3441508587123
0.028860503124391312      684.1930540560362
0.029062765814231884      683.031773666317
0.029265100752448706      681.8783315481711
0.02946696141141544       680.7522869373624
0.029668505276199596      679.6536398338912
0.029869890575077548      678.5823902377572
0.03007127591008127       677.5385381489606
0.030272819883157453      676.5220835675011
0.03047468072232762       675.533026493379
0.030677015912237836      674.5713669265944
0.030879305594778746      673.6953462277304
0.03108112103494649       672.8588465123424
0.031282619677010744      672.0618677804304
0.03148395970843373       671.3044100319943
0.0316852996905265        670.5864732670341
0.031886798184716555      669.9080574855499
0.032088613378814135      669.2691626875417
0.03229090271766436       668.6697888730095
0.03249314477533616       668.2762332129702
0.03269491316800606       667.9407618920285
0.03289636518952694       667.6633749101842
0.03309765887540427       667.4440722674375
0.033298952634071295      667.2828539637884
0.033500404873789524      667.1797199992368
0.03370217362955133       667.1346703737826
0.03390441619436107       667.147705087426
0.03410686840969767       667.2773390308428
0.03430884535332711       667.46546778771
0.0345105048019665        667.7120913580278
0.034712005278138794      668.017209741796
0.03491350567956333       668.3808229390147
0.03511516490413611       668.802930949684
0.035317141474908095      669.2835337738036
0.03551959316946952       669.8226314113737
0.035722216260139425      670.5201336757298
0.03592436286389621       671.2622261931516
0.036126191200505704      672.0489089636394
0.03632786023882611       672.8801819871929
0.03652952932442421       673.7560452638122
0.036731357802754806      674.6764987934972
0.03693350464234149       675.6415425762482
0.03713612806239678       676.6511766120649
0.03733848789969145       677.7306034197408
0.037540373227224554      678.8311513785876
0.03774194158292153       679.9528204886055
0.03794335124849304       681.0956107497944
0.03814476087977932       682.2595221621543
0.03834632913270157       683.444554725685
0.03854821428921239       684.6507084403868
0.038750573887637245      685.8779833062596
0.03895283596123875       687.1816595514732
0.039154623958694366      688.4697026028441
0.039356095285438375      689.7421124603723
0.03955740808971597       690.9988891240577
0.03975872089337115       692.2400325939003
0.03996019221824938       693.4655428699001
0.04016198021260023       694.6754199520573
0.04036424228186526       695.8696638403717
0.040566577948397485      697.0500396808848
0.040768439330593605      698.1916972737422
0.04096998391520435       699.294636618944
0.04117136993220262       700.3588577164901
0.04137275598532357       701.3843605663805
0.04157430067821714       702.3711451686154
0.04177616224060133       703.3192115231944
0.0419784981588055        704.2285596301178
0.04218078754816035       705.1250118486453
0.04238260269718259       705.9517102546563
0.04258410104946696       706.7086548481509
0.04278544079179545       707.3958456291292
0.04298678048479618       708.0132825975909
0.043188278689213704      708.5609657535365
0.043390093592177985      709.0388950969652
0.04359238263785921       709.4470706278779
0.043794623705544454      709.9202695006707
0.04399639111513442       710.3179220476485
0.04419784215819482       710.6400282688114
0.04439913486792596       710.8865881641595
0.044600427650446826      711.0576017336929
0.04480187891170468       711.1530689774111
0.045003646684386715      711.1729898953146
0.04520588825921017       711.1173644874029
