% Model:              brazing.mph
% Version:            COMSOL 5.3.0.223
% Date:               Oct 24 2018, 00:05
% Dimension:          1
% Nodes:              225
% Expressions:        1
% Description:        Line graph
% x                       Height
0                         674.6795549773145
2.02242572596226E-4       674.6708430678004
4.040113375593453E-4      674.5977118718928
6.054635867748898E-4      674.4601613895918
8.067573541103817E-4      674.2581916208973
0.0010080510467017985     673.9918025658093
0.001209503071861434      673.6609942243276
0.0014112714639836859     673.2657665964526
0.001613513515825394      672.8061196821843
0.001815803045808458      672.3960051556355
0.0020176184164428694     671.9384774476383
0.0022191170764546647     671.4335365581927
0.0024204572175778446     670.8811824872986
0.00262179740518867       670.2814152349562
0.002823296204553664      669.6342348011651
0.0030251118070788686     668.9396411859258
0.003227401660948015      668.1976343892378
0.0034297372965816655     667.4772208220829
0.003631598594156443      666.7191025531515
0.0038331430353414214     665.9232795824435
0.004034528845142556      665.0897519099589
0.004235914622467191      664.2185195356977
0.004437458966299354      663.3095824596597
0.004639320101874085      662.3629406818454
0.004841655511239337      661.3785942022544
0.005043918276497792      660.4828815990588
0.005245706959792293      659.5747332952243
0.0054471789681153834     658.6541492907508
0.00564849245128538       657.7211295856384
0.005849805932728159      656.7756741798872
0.006051277935873691      655.817783073497
0.00625306661055245       654.8474562664679
0.006455329363777148      653.8646937587998
0.0066576887471433525     652.9128646600383
0.0068595736811967985     651.9801140940854
0.007061141707903535      651.0664420609414
0.007262551112883539      650.1718485606062
0.007463960555734714      649.2963335930798
0.007665528695965537      648.4398971583622
0.00786741381892875       647.6025392564534
0.0080697734661485        646.7842598873534
0.008272395437950266      646.0494922951557
0.008474540847339949      645.3380229336942
0.008676367906616744      644.649851802969
0.008878035577337231      643.9849789029802
0.009079703197965442      643.3434042337276
0.009281530107084053      642.7251277952113
0.00948367526660416       642.1301495874312
0.009686296889411194      641.5584696103874
0.009888748367913874      641.1990313054544
0.010090724718905934      640.878446370036
0.010292383720552634      640.5967148041325
0.010493883896490891      640.3538366077437
0.010695384145210549      640.1498117808698
0.010897043365029401      639.9846403235106
0.011099020079070253      639.8583222356663
0.011301472064648224      639.7708575173367
0.011503924099142101      639.789638606088
0.011705900863193036      639.8483968037318
0.011907560133099505      639.9471321102682
0.012109060430962503      640.0858445256968
0.012310560654077738      640.2645340500179
0.012512219699917606      640.4832006832314
0.012714196091111104      640.7418444253374
0.012916647604829811      641.0404652763358
0.013119269382981878      641.4943760465148
0.013321414683399362      641.9800725755357
0.013523241722808088      642.4975548633984
0.013724909467002238      643.0468229101027
0.013926577258472442      643.6278767156489
0.014128404439597363      644.2407162800366
0.014330549975836581      644.8853416032663
0.01453317208336263       645.5617526853376
0.014735531766219815      646.3097678876344
0.014937416940401616      647.0701453429782
0.015138985143475461      647.8428850513693
0.015340394656791169      648.6279870128075
0.015541804135826716      649.4254512272928
0.015743372236141022      650.235277694825
0.015945257239325793      651.0574664154047
0.01614761668334845       651.8920173890314
0.01634987940592303       652.8467455400563
0.016551668047823844      653.7878569160636
0.016753140015983766      654.7153515170534
0.0169544534601584        655.6292293430255
0.017155766903708087      656.52949039398
0.017357238869994664      657.416134669917
0.017559027508778132      658.2891621708363
0.01776129022699866       659.1485728967382
0.017963625484858744      660.0353607314267
0.018165486461237414      660.8966180625944
0.018367030641941378      661.7323448902408
0.018568416255992027      662.5425412143662
0.018769801906169285      663.3272070349706
0.018971346195167795      664.0863423520537
0.019173207351754082      664.819947165616
0.019375542861313405      665.528021475657
0.019577832661189145      666.2562256570353
0.019779648217873542      666.93069184856
0.019981146975907166      667.551420050231
0.020182487123025287      668.1184102620483
0.020383827220813066      668.6316624840119
0.020585325830972126      669.0911767161219
0.020787141141585735      669.4969529583784
0.020989430597769934      669.8489912107812
0.021191672662378012      670.3076902552568
0.021393441061935803      670.7012373093953
0.02159489309031221       671.0296323731963
0.021796186783028852      671.2928754466598
0.021997480548535182      671.490966529786
0.022198932795108938      671.6239056225749
0.022400701557758636      671.6916927250263
0.02260294412950465       671.6943278371402
0.02280539620920995       671.7431895557778
0.023007373018156245      671.7245014638155
0.02320903233274668       671.6382635612531
0.023410532675187733      671.4844758480909
0.023612032942881025      671.2631383243288
0.023813692033404853      670.9742509899665
0.024015668469493705      670.6178138450045
0.024218120028423832      670.1938268894426
0.024420742013481003      669.7921664358431
0.02462288751935683       669.3350940240208
0.02482471476325633       668.8226096539757
0.02502638271145666       668.2547133257078
0.025228050706933344      667.631405039217
0.025429878092549915      666.9526847945034
0.025632023834248962      666.218552591567
0.025834646148682177      665.4290084304076
0.026037006051731277      664.6359755397101
0.026238891444565628      663.8012955900068
0.02644045986526205       662.924968581298
0.026641869595683754      662.0069945135834
0.02684327929182417       661.0473733868632
0.027044847609757647      660.0461052011373
0.02724673283158932       659.0031899564058
0.027449092495796006      657.9186276526685
0.02765135518998453       656.8652323675158
0.027853143803698084      655.8024090416907
0.028054615743803996      654.7301576751931
0.028255929159991804      653.6484782680233
0.028457242575555555      652.5573708201811
0.028658714513790734      651.4568353316664
0.028860503124391312      650.3468718024794
0.029062765814231884      649.22748023262
0.029265100752448706      648.1144978002723
0.02946696141141544       647.0274074551086
0.029668505276199596      645.966209197129
0.029869890575077548      644.9309030263337
0.03007127591008127       643.9214889427225
0.030272819883157453      642.9379669462955
0.03047468072232762       641.9803370370525
0.030677015912237836      641.0485992149938
0.030879305594778746      640.1960961107178
0.03108112103494649       639.3811008269444
0.031282619677010744      638.6036133636733
0.03148395970843373       637.8636337209048
0.0316852996905265        637.1611618986387
0.031886798184716555      636.4961978968753
0.032088613378814135      635.8687417156143
0.03229090271766436       635.2787933548559
0.03249314477533616       634.882661000956
0.03269491316800606       634.5416823784068
0.03289636518952694       634.2558574872083
0.03309765887540427       634.0251863273608
0.033298952634071295      633.8496688988639
0.033500404873789524      633.7293052017178
0.03370217362955133       633.6640952359223
0.03390441619436107       633.6540390014777
0.03410686840969767       633.7526746034583
0.03430884535332711       633.9068847055569
0.0345105048019665        634.1166693077736
0.034712005278138794      634.3820284101083
0.03491350567956333       634.7029620125611
0.03511516490413611       635.079470115132
0.035317141474908095      635.5115527178208
0.03551959316946952       635.9992098206279
0.035722216260139425      636.6368467046144
0.03592436286389621       637.3170660700681
0.036126191200505704      638.0398679169889
0.03632786023882611       638.805252245377
0.03652952932442421       639.6132190552322
0.036731357802754806      640.4637683465546
0.03693350464234149       641.3569001193442
0.03713612806239678       642.2926143736009
0.03733848789969145       643.2935708011911
0.037540373227224554      644.3151937400079
0.03774194158292153       645.3574831900511
0.03794335124849304       646.4204391513209
0.03814476087977932       647.5040616238173
0.03834632913270157       648.6083506075402
0.03854821428921239       649.7333061024896
0.038750573887637245      650.8789281086655
0.03895283596123875       652.0964673780567
0.039154623958694366      653.3001850491787
0.039356095285438375      654.4900811220316
0.03955740808971597       655.6661555966153
0.03975872089337115       656.8284084729299
0.03996019221824938       657.9768397509754
0.04016198021260023       659.1114494307517
0.04036424228186526       660.2322375122587
0.040566577948397485      661.3395639489356
0.040768439330593605      662.4113573921181
0.04096998391520435       663.4476178418062
0.04117136993220262       664.4483452979997
0.04137275598532357       665.413539760699
0.04157430067821714       666.3432012299036
0.04177616224060133       667.237329705614
0.0419784981588055        668.0959251878297
0.04218078754816035       668.939340094151
0.04238260269718259       669.7183539178917
0.04258410104946696       670.432966659052
0.04278544079179545       671.0831783176319
0.04298678048479618       671.6689888936313
0.043188278689213704      672.1903983870501
0.043390093592177985      672.6474067978885
0.04359238263785921       673.0400141261464
0.043794623705544454      673.4906166776509
0.04399639111513442       673.87103067341
0.04419784215819482       674.1812561134241
0.04439913486792596       674.4212929976926
0.044600427650446826      674.5911413262158
0.04480187891170468       674.690801098994
0.045003646684386715      674.7202723160269
0.04520588825921017       674.6795549773145
