% Model:              brazing.mph
% Version:            COMSOL 5.3.0.223
% Date:               Oct 24 2018, 02:16
% Dimension:          1
% Nodes:              225
% Expressions:        1
% Description:        Line graph
% x                       Height
0                         670.7315480966487
2.02242572596226E-4       670.7178744000391
4.040113375593453E-4      670.6414974264922
6.054635867748898E-4      670.5024171760076
8.067573541103817E-4      670.3006336485856
0.0010080510467017985     670.036146844226
0.001209503071861434      669.7089567629291
0.0014112714639836859     669.3190634046945
0.001613513515825394      668.8664667695224
0.001815803045808458      668.4559168959714
0.0020176184164428694     667.9991877743147
0.0022191170764546647     667.4962794045525
0.0024204572175778446     666.9471917866847
0.00262179740518867       666.3519249207113
0.002823296204553664      665.7104788066321
0.0030251118070788686     665.0228534444475
0.003227401660948015      664.2890488341573
0.0034297372965816655     663.5759008557469
0.003631598594156443      662.8262791948774
0.0038331430353414214     662.0401838515489
0.004034528845142556      661.2176148257613
0.004235914622467191      660.3585721175147
0.004437458966299354      659.463055726809
0.004639320101874085      658.5310656536442
0.004841655511239337      657.5626018980204
0.005043918276497792      656.6730148263104
0.005245706959792293      655.7718041542831
0.0054471789681153834     654.8589698819388
0.00564849245128538       653.9345120092771
0.005849805932728159      652.9984305362983
0.006051277935873691      652.0507254630022
0.00625306661055245       651.0913967893889
0.006455329363777148      650.1204445154584
0.0066576887471433525     649.1797092826292
0.0068595736811967985     648.2576041530366
0.007061141707903535      647.3541291266805
0.007262551112883539      646.4692842035612
0.007463960555734714      645.6030693836784
0.007665528695965537      644.7554846670321
0.00786741381892875       643.9265300536225
0.0080697734661485        643.1162055434495
0.008272395437950266      642.3850765928529
0.008474540847339949      641.677666144963
0.008676367906616744      640.9939741997803
0.008878035577337231      640.3340007573042
0.009079703197965442      639.6977458175351
0.009281530107084053      639.0852093804729
0.00948367526660416       638.4963914461173
0.009686296889411194      637.9312920144688
0.009888748367913874      637.5653137248335
0.010090724718905934      637.2381771010231
0.010292383720552634      636.9498821430378
0.010493883896490891      636.7004288508776
0.010695384145210549      636.4898172245424
0.010897043365029401      636.3180472640322
0.011099020079070253      636.1851189693471
0.011301472064648224      636.0910323404869
0.011503924099142101      636.0986290472039
0.011705900863193036      636.1461587689787
0.011907560133099505      636.2336215058111
0.012109060430962503      636.3610172577014
0.012310560654077738      636.5283460246493
0.012512219699917606      636.7356078066551
0.012714196091111104      636.9828026037185
0.012916647604829811      637.2699304158397
0.013119269382981878      637.7035866227802
0.013321414683399362      638.1690298962384
0.013523241722808088      638.6662602362143
0.013724909467002238      639.1952776427077
0.013926577258472442      639.7560821157186
0.014128404439597363      640.3486736552474
0.014330549975836581      640.9730522612934
0.01453317208336263       641.6292179338573
0.014735531766219815      642.3538571407319
0.014937416940401616      643.0915119649653
0.015138985143475461      643.8421824065575
0.015340394656791169      644.6058684655086
0.015541804135826716      645.3825701418185
0.015743372236141022      646.1722874354872
0.015945257239325793      646.9750203465148
0.01614761668334845       647.7907688749012
0.01634987940592303       648.717071836152
0.016551668047823844      649.6308427676483
0.016753140015983766      650.5320816693908
0.0169544534601584        651.4207885413788
0.017155766903708087      652.2969633836127
0.017357238869994664      653.1606061960923
0.017559027508778132      654.0117169788178
0.01776129022699866       654.8502957317893
0.017963625484858744      655.7166661872166
0.018165486461237414      656.5582603246951
0.018367030641941378      657.3750781442249
0.018568416255992027      658.1671196458059
0.018769801906169285      658.934384829438
0.018971346195167795      659.6768736951217
0.019173207351754082      660.3945862428562
0.019375542861313405      661.0875224726423
0.019577832661189145      661.799653403516
0.019779648217873542      662.4602548695325
0.019981146975907166      663.0693268706914
0.020182487123025287      663.6268694069931
0.020383827220813066      664.1328824784374
0.020585325830972126      664.5873660850244
0.020787141141585735      664.9903202267541
0.020989430597769934      665.3417449036261
0.021191672662378012      665.7901230951625
0.021393441061935803      666.1754831850902
0.02159489309031221       666.4978251734092
0.021796186783028852      666.7571490601193
0.021997480548535182      666.9534548452209
0.022198932795108938      667.0867425287137
0.022400701557758636      667.1570121105979
0.02260294412950465       667.1642635908731
0.02280539620920995       667.2164417935186
0.023007373018156245      667.203233956419
0.02320903233274668       667.1246400795744
0.023410532675187733      666.9806601629847
0.023612032942881025      666.7712942066499
0.023813692033404853      666.4965422105703
0.024015668469493705      666.1564041747455
0.024218120028423832      665.7508800991759
0.024420742013481003      665.3610973552827
0.02462288751935683       664.9177034768795
0.02482471476325633       664.4206984639662
0.02502638271145666       663.870082316543
0.025228050706933344      663.2658550346096
0.025429878092549915      662.6080166181663
0.025632023834248962      661.8965670672129
0.025834646148682177      661.1315063817494
0.026037006051731277      660.3622942648616
0.026238891444565628      659.5529321999018
0.02644045986526205       658.7034201868697
0.026641869595683754      657.8137582257658
0.02684327929182417       656.8839463165898
0.027044847609757647      655.9139844593417
0.02724673283158932       654.9038726540217
0.027449092495796006      653.8536109006295
0.02765135518998453       652.8279366419248
0.027853143803698084      651.793651083414
0.028054615743803996      650.7507542250971
0.028255929159991804      649.6992460669741
0.028457242575555555      648.6391266090449
0.028658714513790734      647.5703958513097
0.028860503124391312      646.4930537937684
0.029062765814231884      645.4071004364209
0.029265100752448706      644.3276484952804
0.02946696141141544       643.2736063950236
0.029668505276199596      642.2449741356506
0.029869890575077548      641.2417517171615
0.03007127591008127       640.2639391395561
0.030272819883157453      639.3115364028346
0.03047468072232762       638.3845435069966
0.030677015912237836      637.4829604520426
0.030879305594778746      636.656351333216
0.03108112103494649       635.8673133438637
0.031282619677010744      635.1158464839858
0.03148395970843373       634.4019507535824
0.0316852996905265        633.7256261526533
0.031886798184716555      633.0868726811984
0.032088613378814135      632.4856903392181
0.03229090271766436       631.9220791267121
0.03249314477533616       631.5395629027474
0.03269491316800606       631.2116851362204
0.03289636518952694       630.9384458271309
0.03309765887540427       630.7198449754788
0.033298952634071295      630.5558825812645
0.033500404873789524      630.4465586444877
0.03370217362955133       630.3918731651485
0.03390441619436107       630.3918261432469
0.03410686840969767       630.4954667585212
0.03430884535332711       630.6540748954674
0.0345105048019665        630.8676505540856
0.034712005278138794      631.1361937343759
0.03491350567956333       631.459704436338
0.03511516490413611       631.8381826599723
0.035317141474908095      632.2716284052784
0.03551959316946952       632.7600416722566
0.035722216260139425      633.3893884288597
0.03592436286389621       634.0607947305296
0.036126191200505704      634.7742605772662
0.03632786023882611       635.5297859690697
0.03652952932442421       636.3273709059401
0.036731357802754806      637.1670153878773
0.03693350464234149       638.0487194148815
0.03713612806239678       638.9724829869524
0.03733848789969145       639.9576273049838
0.037540373227224554      640.9633086326256
0.03774194158292153       641.9895269698777
0.03794335124849304       643.0362823167401
0.03814476087977932       644.1035746732128
0.03834632913270157       645.191404039296
0.03854821428921239       646.2997704149894
0.038750573887637245      647.4286738002932
0.03895283596123875       648.6219065619025
0.039154623958694366      649.8018370959545
0.039356095285438375      650.9684654024492
0.03955740808971597       652.1217914813864
0.03975872089337115       653.2618153327662
0.03996019221824938       654.3885369565886
0.04016198021260023       655.5019563528537
0.04036424228186526       656.6020735215614
0.040566577948397485      657.6892061471655
0.040768439330593605      658.7412625950956
0.04096998391520435       659.7582428653517
0.04117136993220262       660.7401469579339
0.04137275598532357       661.6869748728421
0.04157430067821714       662.5987266100763
0.04177616224060133       663.4754021696367
0.0419784981588055        664.3170015515229
0.04218078754816035       665.1414972945869
0.04238260269718259       665.9035971387931
0.04258410104946696       666.6033010841415
0.04278544079179545       667.2406091306325
0.04298678048479618       667.8155212782658
0.043188278689213704      668.3280375270413
0.043390093592177985      668.7781578769591
0.04359238263785921       669.1658823280195
0.043794623705544454      669.6008274344282
0.04399639111513442       669.9674191450283
0.04419784215819482       670.2656574598199
0.04439913486792596       670.4955423788028
0.044600427650446826      670.6570739019772
0.04480187891170468       670.750252029343
0.045003646684386715      670.7750767609001
0.04520588825921017       670.7315480966487
