% Model:              brazing.mph
% Version:            COMSOL 5.3.0.223
% Date:               Oct 24 2018, 05:37
% Dimension:          1
% Nodes:              225
% Expressions:        1
% Description:        Line graph
% x                       Height
0                         682.8880879094128
2.02242572596226E-4       682.8749839227053
4.040113375593453E-4      682.8045618626345
6.054635867748898E-4      682.6768217292004
8.067573541103817E-4      682.491763522403
0.0010080510467017985     682.2493872422423
0.001209503071861434      681.9496928887183
0.0014112714639836859     681.5926804618308
0.001613513515825394      681.1783499615804
0.001815803045808458      680.7924631443607
0.0020176184164428694     680.3642608654397
0.0022191170764546647     679.8937431248177
0.0024204572175778446     679.3809099224943
0.00262179740518867       678.8257612584698
0.002823296204553664      678.2282971327438
0.0030251118070788686     677.5885175453168
0.003227401660948015      676.9064224961885
0.0034297372965816655     676.2394909176586
0.003631598594156443      675.53972340216
0.0038331430353414214     674.8071199496928
0.004034528845142556      674.0416805602571
0.004235914622467191      673.2434052338526
0.004437458966299354      672.4122939704798
0.004639320101874085      671.5483467701381
0.004841655511239337      670.651563632828
0.005043918276497792      669.8151292837663
0.005245706959792293      668.9691035011166
0.0054471789681153834     668.1134862848791
0.00564849245128538       667.2482776350535
0.005849805932728159      666.3734775516398
0.006051277935873691      665.4890860346384
0.00625306661055245       664.595103084049
0.006455329363777148      663.6915286998716
0.0066576887471433525     662.8149297580535
0.0068595736811967985     661.9561205605831
0.007061141707903535      661.1151011074608
0.007262551112883539      660.291871398686
0.007463960555734714      659.4864314342591
0.007665528695965537      658.69878121418
0.00786741381892875       657.9289207384486
0.0080697734661485        657.1768500070651
0.008272395437950266      656.4928229841323
0.008474540847339949      655.8328440835786
0.008676367906616744      655.1969133054038
0.008878035577337231      654.5850306496079
0.009079703197965442      653.997196116191
0.009281530107084053      653.433409705153
0.00948367526660416       652.893671416494
0.009686296889411194      652.377981250214
0.009888748367913874      652.0329395208211
0.010090724718905934      651.7256817017635
0.010292383720552634      651.456207793041
0.010493883896490891      651.2245177946538
0.010695384145210549      651.0306117066019
0.010897043365029401      650.874489528885
0.011099020079070253      650.7561512615035
0.011301472064648224      650.6755969044572
0.011503924099142101      650.6845687748587
0.011705900863193036      650.7321656014868
0.011907560133099505      650.8183873843412
0.012109060430962503      650.9432341234221
0.012310560654077738      651.1067058187296
0.012512219699917606      651.3088024702635
0.012714196091111104      651.5495240780236
0.012916647604829811      651.8288706420105
0.013119269382981878      652.2353976472051
0.013321414683399362      652.6725957225884
0.013523241722808088      653.1404648681604
0.013724909467002238      653.639005083921
0.013926577258472442      654.1682163698703
0.014128404439597363      654.7280987260083
0.014330549975836581      655.3186521523348
0.01453317208336263       655.93987664885
0.014735531766219815      656.6207391361893
0.014937416940401616      657.3149682346804
0.015138985143475461      658.0225639443233
0.015340394656791169      658.7435262651182
0.015541804135826716      659.4778551970651
0.015743372236141022      660.2255507401638
0.015945257239325793      660.9866128944144
0.01614761668334845       661.7610416598169
0.01634987940592303       662.6262089423836
0.016551668047823844      663.4806538895336
0.016753140015983766      664.3243765012669
0.0169544534601584        665.1573767775834
0.017155766903708087      665.9796547184832
0.017357238869994664      666.7912103239662
0.017559027508778132      667.5920435940324
0.01776129022699866       668.382154528682
0.017963625484858744      669.1965132970871
0.018165486461237414      669.9877478389079
0.018367030641941378      670.7558581541447
0.018568416255992027      671.5008442427971
0.018769801906169285      672.2227061048654
0.018971346195167795      672.9214437403494
0.019173207351754082      673.5970571492492
0.019375542861313405      674.2495463315649
0.019577832661189145      674.9123213291091
0.019779648217873542      675.5286697507271
0.019981146975907166      676.0985915964188
0.020182487123025287      676.6220868661843
0.020383827220813066      677.0991555600235
0.020585325830972126      677.5297976779366
0.020787141141585735      677.9140132199236
0.020989430597769934      678.2518021859842
0.021191672662378012      678.6605411139026
0.021393441061935803      679.0116291285583
0.02159489309031221       679.3050662299515
0.021796186783028852      679.5408524180823
0.021997480548535182      679.7189876929503
0.022198932795108938      679.8394720545562
0.022400701557758636      679.902305502899
0.02260294412950465       679.9074880379795
0.02280539620920995       679.9483099850697
0.023007373018156245      679.9291986627301
0.02320903233274668       679.8501540709603
0.023410532675187733      679.7111762097605
0.023612032942881025      679.5122650791308
0.023813692033404853      679.2534206790712
0.024015668469493705      678.9346430095815
0.024218120028423832      678.5559320706618
0.024420742013481003      678.1809920079672
0.02462288751935683       677.7566543771004
0.02482471476325633       677.2829191780612
0.02502638271145666       676.7597864108496
0.025228050706933344      676.1872560754658
0.025429878092549915      675.5653281719096
0.025632023834248962      674.8940027001812
0.025834646148682177      674.1732796602802
0.026037006051731277      673.4445168088406
0.026238891444565628      672.6791264900174
0.02644045986526205       671.8771087038107
0.026641869595683754      671.0384634502203
0.02684327929182417       670.1631907292464
0.027044847609757647      669.2512905408888
0.02724673283158932       668.3027628851477
0.027449092495796006      667.3176077620232
0.02765135518998453       666.3444012521119
0.027853143803698084      665.3640457312571
0.028054615743803996      664.3765411994586
0.028255929159991804      663.3818876567166
0.028457242575555555      662.3800851030309
0.028658714513790734      661.3711335384016
0.028860503124391312      660.3550329628287
0.029062765814231884      659.3317833763122
0.029265100752448706      658.3146792736048
0.02946696141141544       657.3215939917189
0.029668505276199596      656.3525275306545
0.029869890575077548      655.4074798904115
0.03007127591008127       654.48645107099
0.030272819883157453      653.5894410723898
0.03047468072232762       652.7164498946113
0.030677015912237836      651.8674775376539
0.030879305594778746      651.0834991271736
0.03108112103494649       650.3362180319041
0.031282619677010744      649.6256342518453
0.03148395970843373       648.9517477869975
0.0316852996905265        648.3145586373604
0.031886798184716555      647.7140668029344
0.032088613378814135      647.1502722837189
0.03229090271766436       646.6231750797143
0.03249314477533616       646.2531281106947
0.03269491316800606       645.9355068900483
0.03289636518952694       645.6703114177753
0.03309765887540427       645.4575416938757
0.033298952634071295      645.2971977183495
0.033500404873789524      645.1892794911965
0.03370217362955133       645.1337870124173
0.03390441619436107       645.1307202820111
0.03410686840969767       645.2200463473686
0.03430884535332711       645.3619993870278
0.0345105048019665        645.556579400989
0.034712005278138794      645.803786389252
0.03491350567956333       646.1036203518169
0.03511516490413611       646.4560812886835
0.035317141474908095      646.8611691998523
0.03551959316946952       647.3188840853227
0.035722216260139425      647.9007064358257
0.03592436286389621       648.5229137944169
0.036126191200505704      649.1855061610967
0.03632786023882611       649.8884835358647
0.03652952932442421       650.631845918721
0.036731357802754806      651.4155933096658
0.03693350464234149       652.2397257086988
0.03713612806239678       653.1042431158202
0.03733848789969145       654.0225273970522
0.037540373227224554      654.9610671149023
0.03774194158292153       655.9198622693706
0.03794335124849304       656.898912860457
0.03814476087977932       657.8982188881615
0.03834632913270157       658.9177803524843
0.03854821428921239       659.9575972534251
0.038750573887637245      661.017669590984
0.03895283596123875       662.1294870550307
0.039154623958694366      663.2298732014339
0.039356095285438375      664.3188280301936
0.03955740808971597       665.3963515413096
0.03975872089337115       666.4624437347821
0.03996019221824938       667.5171046106113
0.04016198021260023       668.5603341687967
0.04036424228186526       669.5921324093385
0.040566577948397485      670.6118160147369
0.040768439330593605      671.599021791581
0.04096998391520435       672.5537497398708
0.04117136993220262       673.4759998596065
0.04137275598532357       674.365772150788
0.04157430067821714       675.2230666134151
0.04177616224060133       676.047883247488
0.0419784981588055        676.8402220530068
0.04218078754816035       677.6101039906976
0.04238260269718259       678.3236007145497
0.04258410104946696       678.9807122245631
0.04278544079179545       679.5814385207381
0.04298678048479618       680.1257796030743
0.043188278689213704      680.6137354715718
0.043390093592177985      681.0453061262306
0.04359238263785921       681.4204915670507
0.043794623705544454      681.8226969214231
0.04399639111513442       682.162400615345
0.04419784215819482       682.4396026488162
0.04439913486792596       682.6543030218368
0.044600427650446826      682.8065017344067
0.04480187891170468       682.896198786526
0.045003646684386715      682.9233941781948
0.04520588825921017       682.8880879094128
