% Model:              brazing.mph
% Version:            COMSOL 5.3.0.223
% Date:               Oct 24 2018, 06:09
% Dimension:          1
% Nodes:              225
% Expressions:        1
% Description:        Line graph
% x                       Height
0                         686.5604175189509
2.1191841480136804E-4     686.4599499640796
4.2353438892247565E-4     686.3179481338543
6.349689892252786E-4      686.1344120282747
8.463435942227858E-4      685.9093416473412
0.001057779685752053      685.642736991054
0.001269398639759412      685.3345980594123
0.001481321517995422      684.9849248524168
0.0017252358262731596     684.5200488625958
0.0019686866163640313     684.0214151498293
0.0022118589563155885     683.4890237141167
0.002454938550168189      682.9228745554583
0.0026981113144448556     682.3229676738547
0.0029415629522145732     681.6893030693049
0.0031854785295931678     681.0218807418096
0.0034450106912723537     680.2057420515895
0.0037039863009040125     679.3556765182188
0.003962627412610827      678.4716841416972
0.0042211569424298        677.5537649220247
0.004479798094906585      676.6019188592019
0.004738773785972872      675.6161459532278
0.004998306069542035      674.5964462041031
0.005274868491808245      673.4081828988927
0.005550758931995686      672.2013582812085
0.0058262454501036105     670.9759723510506
0.006101597285810183      669.7320251084192
0.006377084073678616      668.4695165533142
0.006652975052596927      667.1884466857352
0.006929538280995558      665.8888155056828
0.007206101510950518      664.5442679973169
0.007481992491406557      663.2174751876105
0.007757479280801014      661.9084370765637
0.00803283111802884       660.6171536641766
0.008308317637660222      659.3436249504495
0.008584208079380276      658.0878509353814
0.008860770503195153      656.8498316189733
0.009120302815147717      655.6894126283698
0.00937927853441616       654.5723169855323
0.009637919714987194      653.4985446904604
0.009896449272866283      652.4680957431544
0.010155090412673047      651.4809701436145
0.010414066050518256      650.5371678918401
0.01067359824059789       649.6366889878318
0.010917512776055054      648.8172142698173
0.011160965100129169      648.0519909291952
0.011404139717480647      647.3410189659653
0.01164722176512739       646.6842983801278
0.011890396591516505      646.0818291716828
0.012133849333188814      645.5336113406298
0.012377764493855997      645.0396448869693
0.01258968694000722       644.6552645919102
0.012801305803204788      644.3143571963284
0.013012742322906452      644.0169227002239
0.013224118052332232      643.7629611035967
0.01343555464954572       643.5524724064472
0.013647173667633327      643.3854566087747
0.013859096345786744      643.2619137105797
0.014071014760598048      643.1984704273546
0.014282630734729056      643.1777183559382
0.01449406533504172       643.1996574963301
0.014705439940049088      643.264287848531
0.014916876031588231      643.3716094125408
0.015128494985605482      643.521622188359
0.015340417863851432      643.7143261759859
0.01558433217214941       643.9567679103225
0.015827782962260412      644.2613274571171
0.016070955302232025      644.6280048163692
0.016314034896104664      645.0567999880792
0.0165572076604014        645.5477129722473
0.01680065929819124       646.1007437688728
0.01704457487559009       646.7158923779564
0.01730410703726679       647.3898418629948
0.017563082646895985      648.1068521213507
0.01782172375860034       648.8669231530238
0.018080253288416847      649.6700549580145
0.01833889444089119       650.5162475363229
0.018597870131955005      651.4055008879484
0.018857402415521692      652.3378150128916
0.019133964837753384      653.3408471337304
0.019409855277906563      654.3638275694243
0.019685341795980367      655.4067563199733
0.019960693631652874      656.4696333853773
0.0202361804194872        657.5524587656366
0.020512071398371242      658.6552324607508
0.020788634626735362      659.7779544707201
0.02106519785666259       660.8745139446842
0.021341088837091095      661.9591181298092
0.021616575626458134      663.0317670260948
0.02189192746365859       664.0924606335415
0.022167413983262562      665.1411989521492
0.02244330442495508       666.1779819819174
0.022719866848742224      667.2028097228466
0.022979399160698737      668.067002909976
0.023238374879971102      668.9083760662359
0.023497016060546046      669.7269291916256
0.023755545618429033      670.5226622861455
0.02401418675823971       671.295575349796
0.024273162396088833      672.0456683825762
0.024532694586172417      672.7729413844868
0.02477660912165014       673.3790544315631
0.02502006144574469       673.9510179391048
0.025263236063116538      674.4888319071117
0.025506318110783622      674.9924963355843
0.025749492937193107      675.4620112245224
0.02599294567888585       675.8973765739256
0.026236860839573585      676.2985923837945
0.026448783285734738      676.5917078003906
0.02666040214894219       676.8650392920025
0.026871838668653707      677.1185868586302
0.027083214398089334      677.3523505002736
0.027294650995312687      677.5663302169329
0.027506270013410168      677.7605260086077
0.02771819269157351       677.9349378752985
0.02793011110637494       678.0195839084223
0.028141727080496122      678.0827236093497
0.028353161680798985      678.124356978081
0.028564536285796558      678.1444840146161
0.028775972377325904      678.1431047189551
0.028987591331333325      678.1202190910976
0.029199514209569403      678.0758271310441
0.02944342851784522       677.8896502459194
0.02968687930793418       677.6594294621326
0.02993005164788383       677.385164779684
0.030173131241734534      677.0668561985736
0.0304163040060093        676.7045037188017
0.0306597556437771        676.2981073403677
0.030903671221153783      675.847667063272
0.031163203382828072      675.2062863488401
0.03142217899245488       674.5182601445165
0.03168082010415685       673.7835884503011
0.03193934963397098       673.0022712661939
0.032197990786442934      672.1743085921953
0.03245696647750436       671.2997004283046
0.032716498761068635      670.3784467745224
0.03299306118333142       669.2173580870957
0.03326895162351545       668.0347843028994
0.03354443814161999       666.8307254219338
0.03381978997732317       665.6051814441989
0.034095276765188226      664.3581523696948
0.03437116774410313       663.089638198421
0.03464773097249833       661.799638930378
0.034924294202460265      660.4354698748025
0.03520018518292322       659.0922844992072
0.03547567197232456       657.7700828035914
0.035751023809559274      656.4688647879559
0.036026510329197556      655.1886304523006
0.036302400770924524      653.929379796625
0.03657896319474637       652.6911128209294
0.036838495506703706      651.5284144441147
0.03709747122597688       650.4206569219127
0.037356112406552636      649.3678402543235
0.03761464196443644       648.3699644413472
0.03787328310424792       647.4270294829839
0.03813225874209787       646.5390353792333
0.03839179093218227       645.7059821300955
0.03863570546763781       644.954185559721
0.038879157791710306      644.2696326400552
0.03912233240906017       643.6523233710981
0.03936541445670531       643.1022577528495
0.039608589283092806      642.6194357853099
0.039852042024763494      642.2038574684785
0.04009595718542905       641.8555228023561
0.040307879631580334      641.5902074418055
0.04051949849477797       641.3787580781444
0.0407309350144797        641.2211747113729
0.040942310743905544      641.1174573414906
0.04115374734111909       641.0676059684981
0.04136536635920676       641.0716205923948
0.04157728903736024       641.129501213181
0.04178920745215007       641.2474743869159
0.042000823426259694      641.417664602009
0.042212258026551035      641.6400718584605
0.04242363263153709       641.9146961562702
0.0426350687230549        642.2415374954387
0.042846687677050764      642.6205958759651
0.04305861055527523       643.0518712978502
0.04330252486354604       643.5776409128848
0.043545975653630026      644.1738420530893
0.04378914799357473       644.8404747184632
0.044032227587420474      645.5775389090068
0.04427540035169028       646.3850346247204
0.04451885198945311       647.2629618656035
0.044762767566824783      648.2113206316563
0.045022299728516735      649.2527730751393
0.04528127533816108       650.3427636628488
0.045539916449880535      651.4812923947846
0.045798445979712124      652.668359270947
0.046057087132201545      653.9039642913363
0.04631606282328052       655.1881074559515
0.046575595106862454      656.5207887647935
0.04685215752913061       657.9403924478618
0.04712804796931999       659.3835262899196
0.04740353448742985       660.8501902909665
0.04767888632313835       662.3403844510027
0.04795437311100872       663.8541087700286
0.048230264089928976      665.3913632480434
0.048506827318329566      666.9521478850477
0.04878339054829114       668.4306724684006
0.049059281528753745      669.8870852081797
0.04933476831815475       671.3213861043848
0.0496101201553891        672.7335751570162
0.04988560667502701       674.1236523660737
0.05016149711675364       675.491617731557
0.050438059540575134      676.8374712534667
0.05069759185254397       677.925237933161
0.05095656757182859       678.9637032988238
0.05121520875241573       679.9528673504548
0.05147373831031092       680.8927300880542
0.051732379450133786      681.7832915116222
0.05199135508799517       682.6245516211583
0.05225088727809108       683.416510416663
0.0524948018135407        684.037444805873
0.052738254137607306      684.5966287125784
0.05298142875495131       685.0940621367788
0.05322451080259058       685.5297450784747
0.0534676856289722        685.9036775376659
0.05371113837063701       686.2158595143521
0.05395505353129665       686.4662910085339
0.05416697597743634       686.6137876316639
0.054378594840622414      686.7166009285321
0.05459003136031263       686.7747308991388
0.05480140708972696       686.788177543484
0.05501284368692898       686.7569408615681
0.0552244627050051        686.6810208533901
0.05543638538314697       686.5604175189509
