% Model:              brazing.mph
% Version:            COMSOL 5.3.0.223
% Date:               Oct 24 2018, 05:56
% Dimension:          1
% Nodes:              225
% Expressions:        1
% Description:        Line graph
% x                       Height
0                         704.3663732101246
2.1191841480136804E-4     704.261030718221
4.2353438892247565E-4     704.1131041569527
6.349689892252786E-4      703.9225935263197
8.463435942227858E-4      703.689498826322
0.001057779685752053      703.4138200569599
0.001269398639759412      703.095557218233
0.001481321517995422      702.7347103101414
0.0017252358262731596     702.2561710110746
0.0019686866163640313     701.7417150841309
0.0022118589563155885     701.1913425293104
0.002454938550168189      700.6050533466129
0.0026981113144448556     699.9828475360387
0.0029415629522145732     699.3247250975875
0.0031854785295931678     698.6306860312595
0.0034450106912723537     697.790731641505
0.0037039863009040125     696.9150968765586
0.003962627412610827      696.0037817364206
0.0042211569424298        695.0567862210909
0.004479798094906585      694.0741103305697
0.004738773785972872      693.0557540648566
0.004998306069542035      692.001717423952
0.005274868491808245      690.7830014082061
0.005550758931995686      689.5445316280023
0.0058262454501036105     688.2863080833406
0.006101597285810183      687.008330774221
0.006377084073678616      685.7105997006438
0.006652975052596927      684.3931148626084
0.006929538280995558      683.0558762601154
0.007206101510950518      681.6777013157142
0.007481992491406557      680.3163028420355
0.007757479280801014      678.9716808390784
0.00803283111802884       677.6438353068435
0.008308317637660222      676.3327662453308
0.008584208079380276      675.0384736545399
0.008860770503195153      673.7609575344712
0.009120302815147717      672.56635177215
0.00937927853441616       671.4148909638864
0.009637919714987194      670.3065751096799
0.009896449272866283      669.2414042095307
0.010155090412673047      668.2193782634394
0.010414066050518256      667.2404972714048
0.01067359824059789       666.304761233428
0.010917512776055054      665.4539264801122
0.011160965100129169      664.6578290977424
0.011404139717480647      663.9164690863179
0.01164722176512739       663.229846445839
0.011890396591516505      662.5979611763063
0.012133849333188814      662.0208132777187
0.012377764493855997      661.498402750077
0.01258968694000722       661.0893749420758
0.012801305803204788      660.7245698056842
0.013012742322906452      660.4039873409016
0.013224118052332232      660.1276275477286
0.01343555464954572       659.8954904261653
0.013647173667633327      659.707575976211
0.013859096345786744      659.5638841978665
0.014071014760598048      659.4799177351005
0.014282630734729056      659.4394431691018
0.01449406533504172       659.4424604998708
0.014705439940049088      659.4889697274073
0.014916876031588231      659.5789708517118
0.015128494985605482      659.7124638727837
0.015340417863851432      659.8894487906232
0.01558433217214941       660.1152612545061
0.015827782962260412      660.4038328602526
0.016070955302232025      660.7551636078628
0.016314034896104664      661.1692534973365
0.0165572076604014        661.6461025286743
0.01680065929819124       662.1857107018752
0.01704457487559009       662.7880780169401
0.01730410703726679       663.4509293487546
0.017563082646895985      664.1575025226051
0.01782172375860034       664.9077975384914
0.018080253288416847      665.7018143964134
0.01833889444089119       666.5395530963716
0.018597870131955005      667.4210136383653
0.018857402415521692      668.3461960223949
0.019133964837753384      669.3458417317553
0.019409855277906563      670.3656823062094
0.019685341795980367      671.4057177457568
0.019960693631652874      672.465948050398
0.0202361804194872        673.546373220133
0.020512071398371242      674.6469932549613
0.020788634626735362      675.7678081548835
0.02106519785666259       676.8657241698652
0.021341088837091095      677.951572864119
0.021616575626458134      679.0253542376446
0.02189192746365859       680.0870682904422
0.022167413983262562      681.136715022512
0.02244330442495508       682.1742944338532
0.022719866848742224      683.1998065244667
0.022979399160698737      684.0737305772608
0.023238374879971102      684.9238758244468
0.023497016060546046      685.7502422660242
0.023755545618429033      686.5528299019934
0.02401418675823971       687.3316387323545
0.024273162396088833      688.0866687571068
0.024532694586172417      688.8179199762511
0.02477660912165014       689.434032027881
0.02502006144574469       690.0160822343212
0.025263236063116538      690.5640705955715
0.025506318110783622      691.0779971116322
0.025749492937193107      691.5578617825033
0.02599294567888585       692.0036646081843
0.026236860839573585      692.4154055886758
0.026448783285734738      692.720231262567
0.02666040214894219       693.0033848167006
0.026871838668653707      693.2648662510765
0.027083214398089334      693.504675565695
0.027294650995312687      693.722812760556
0.027506270013410168      693.9192778356594
0.02771819269157351       694.0940707910054
0.02793011110637494       694.1863364659687
0.028141727080496122      694.2548814474993
0.028353161680798985      694.2997057355968
0.028564536285796558      694.3208093302615
0.028775972377325904      694.3181922314935
0.028987591331333325      694.2918544392924
0.029199514209569403      694.2417959536584
0.02944342851784522       694.0511701947072
0.02968687930793418       693.8166583557769
0.02993005164788383       693.5382604368679
0.030173131241734534      693.21597643798
0.0304163040060093        692.8498063591137
0.0306597556437771        692.4397502002682
0.030903671221153783      691.9858079614443
0.031163203382828072      691.3466402499207
0.03142217899245488       690.6605759425848
0.03168082010415685       689.9276150394365
0.03193934963397098       689.1477575404759
0.032197990786442934      688.3210034457034
0.03245696647750436       687.447352755118
0.032716498761068635      686.5268054687205
0.03299306118333142       685.3741802745548
0.03326895162351545       684.2000018686435
0.03354443814161999       683.0042702509865
0.03381978997732317       681.7869854215838
0.034095276765188226      680.5481473804359
0.03437116774410313       679.287756127542
0.03464773097249833       678.0058116629027
0.034924294202460265      676.6545949964586
0.03520018518292322       675.323797412207
0.03547567197232456       674.0134189101476
0.035751023809559274      672.7234594902806
0.036026510329197556      671.4539191526061
0.036302400770924524      670.2047978971235
0.03657896319474637       668.9760957238335
0.036838495506703706      667.8260139743281
0.03709747122597688       666.730725544107
0.037356112406552636      665.69023043317
0.03761464196443644       664.704528641517
0.03787328310424792       663.7736201691484
0.03813225874209787       662.8975050160636
0.03839179093218227       662.0761831822632
0.03863570546763781       661.3376861737344
0.038879157791710306      660.6669116863857
0.03912233240906017       660.0638597202172
0.03936541445670531       659.5285302752291
0.039608589283092806      659.0609233514214
0.039852042024763494      658.6610389487936
0.04009595718542905       658.3288770673463
0.040307879631580334      658.0783465465299
0.04051949849477797       657.8823582303254
0.0407309350144797        657.7409121187325
0.040942310743905544      657.6540082117514
0.04115374734111909       657.6216465093823
0.04136536635920676       657.6438270116247
0.04157728903736024       657.7205497184791
0.04178920745215007       657.8574694766335
0.042000823426259694      658.0472086229789
0.042212258026551035      658.2897671575151
0.04242363263153709       658.5851450802422
0.0426350687230549        658.9333423911606
0.042846687677050764      659.3343590902697
0.04305861055527523       659.7881951775697
0.04330252486354604       660.3419129156874
0.043545975653630026      660.9660934609728
0.04378914799357473       661.6607368134261
0.044032227587420474      662.4258429730472
0.04427540035169028       663.2614119398363
0.04451885198945311       664.1674437137931
0.044762767566824783      665.1439382949178
0.045022299728516735      666.216947222305
0.04528127533816108       667.3384349026638
0.045539916449880535      668.5084013359946
0.045798445979712124      669.7268465222971
0.046057087132201545      670.9937704615719
0.04631606282328052       672.3091731538183
0.046575595106862454      673.6730545990367
0.04685215752913061       675.1277200053019
0.04712804796931999       676.6046940354388
0.04740353448742985       678.1039766894476
0.04767888632313835       679.6255679673282
0.04795437311100872       681.1694678690809
0.048230264089928976      682.7356763947051
0.048506827318329566      684.3241935442014
0.04878339054829114       685.8298456652831
0.049059281528753745      687.311933367027
0.04933476831815475       688.7704566494326
0.0496101201553891        690.2054155125004
0.04988560667502701       691.6168099562306
0.05016149711675364       693.0046399806223
0.050438059540575134      694.3689055856763
0.05069759185254397       695.4809297456568
0.05095656757182859       696.5420836447198
0.05121520875241573       697.5523672828654
0.05147373831031092       698.5117806600937
0.051732379450133786      699.4203237764049
0.05199135508799517       700.2779966317983
0.05225088727809108       701.0847992262745
0.0524948018135407        701.7220220674842
0.052738254137607306      702.2966851317052
0.05298142875495131       702.8087884189374
0.05322451080259058       703.2583319291812
0.0534676856289722        703.6453156624362
0.05371113837063701       703.9697396187024
0.05395505353129665       704.2316037979801
0.05416697597743634       704.3897595978608
0.054378594840622414      704.5016143888357
0.05459003136031263       704.567168170905
0.05480140708972696       704.5864209440683
0.05501284368692898       704.5593727083264
0.0552244627050051        704.4860234636782
0.05543638538314697       704.3663732101246
