% Model:              brazing.mph
% Version:            COMSOL 5.3.0.223
% Date:               Oct 24 2018, 06:06
% Dimension:          1
% Nodes:              225
% Expressions:        1
% Description:        Line graph
% x                       Height
0                         697.517713485179
2.02242572596226E-4       697.5037777134581
4.040113375593453E-4      697.4225033526682
6.054635867748898E-4      697.2738904028092
8.067573541103817E-4      697.0579388638812
0.0010080510467017985     696.774648735884
0.001209503071861434      696.4240200188178
0.0014112714639836859     696.0060527126825
0.001613513515825394      695.5207468174782
0.001815803045808458      695.0894460727662
0.0020176184164428694     694.608615541207
0.0022191170764546647     694.0782552228003
0.0024204572175778446     693.4983651175462
0.00262179740518867       692.8689452254448
0.002823296204553664      692.189995546496
0.0030251118070788686     691.4615160806998
0.003227401660948015      690.6835068280562
0.0034297372965816655     689.9303088124528
0.003631598594156443      689.1374101905809
0.0038331430353414214     688.3048109624405
0.004034528845142556      687.4325111280314
0.004235914622467191      686.5205106873536
0.004437458966299354      685.5688096404075
0.004639320101874085      684.5774079871926
0.004841655511239337      683.5463057277094
0.005043918276497792      682.6099933386339
0.005245706959792293      681.6601005772287
0.0054471789681153834     680.6966274434941
0.00564849245128538       679.71957393743
0.005849805932728159      678.7289400590363
0.006051277935873691      677.7247258083131
0.00625306661055245       676.7069311852603
0.006455329363777148      675.6755561898781
0.0066576887471433525     674.6770623817159
0.0068595736811967985     673.697678741627
0.007061141707903535      672.7374052696114
0.007262551112883539      671.7962419656689
0.007463960555734714      670.8741888297996
0.007665528695965537      669.9712458620036
0.00786741381892875       669.0874130622806
0.0080697734661485        668.222690430631
0.008272395437950266      667.4461337230134
0.008474540847339949      666.6927964941806
0.008676367906616744      665.9626787441325
0.008878035577337231      665.2557804728692
0.009079703197965442      664.5721016803906
0.009281530107084053      663.9116423666968
0.00948367526660416       663.2744025317878
0.009686296889411194      662.6603821756637
0.009888748367913874      662.2690601666048
0.010090724718905934      661.9172365676827
0.010292383720552634      661.6049113788973
0.010493883896490891      661.3320846002488
0.010695384145210549      661.0987562317371
0.010897043365029401      660.904926273362
0.011099020079070253      660.7505947251237
0.011301472064648224      660.6357615870222
0.011503924099142101      660.63263079148
0.011705900863193036      660.6703612260332
0.011907560133099505      660.748952890682
0.012109060430962503      660.8684057854263
0.012310560654077738      661.0287199102661
0.012512219699917606      661.2298952652013
0.012714196091111104      661.4719318502323
0.012916647604829811      661.7548296653587
0.013119269382981878      662.2003719473856
0.013321414683399362      662.6785811491999
0.013523241722808088      663.1894572708015
0.013724909467002238      663.7330003121904
0.013926577258472442      664.3092102733664
0.014128404439597363      664.91808715433
0.014330549975836581      665.5596309550805
0.01453317208336263       666.2338416756186
0.014735531766219815      666.9840311238274
0.014937416940401616      667.7469115387701
0.015138985143475461      668.5224829204468
0.015340394656791169      669.3107452688573
0.015541804135826716      670.1116985840018
0.015743372236141022      670.9253428658802
0.015945257239325793      671.7516781144924
0.01614761668334845       672.5907043298388
0.01634987940592303       673.5578983127139
0.016551668047823844      674.5111637286235
0.016753140015983766      675.4505005775677
0.0169544534601584        676.3759088595466
0.017155766903708087      677.28738857456
0.017357238869994664      678.184939722608
0.017559027508778132      679.0685623036907
0.01776129022699866       679.9382563178079
0.017963625484858744      680.838905634124
0.018165486461237414      681.7137071503768
0.018367030641941378      682.5626608665664
0.018568416255992027      683.3857667826928
0.018769801906169285      684.183024898756
0.018971346195167795      684.954435214756
0.019173207351754082      685.6999977306928
0.019375542861313405      686.4197124465662
0.019577832661189145      687.1664148046308
0.019779648217873542      687.8575275204694
0.019981146975907166      688.493050594082
0.020182487123025287      689.0729840254686
0.020383827220813066      689.5973278146292
0.020585325830972126      690.0660819615638
0.020787141141585735      690.4792464662725
0.020989430597769934      690.8368213287551
0.021191672662378012      691.3153965609233
0.021393441061935803      691.7267836640538
0.02159489309031221       692.0709826381466
0.021796186783028852      692.3479934832015
0.021997480548535182      692.5578161992188
0.022198932795108938      692.7004507861985
0.022400701557758636      692.7758972441403
0.02260294412950465       692.7841555730445
0.02280539620920995       692.8456898283532
0.023007373018156245      692.8376034325516
0.02320903233274668       692.7598963856399
0.023410532675187733      692.6125686876177
0.023612032942881025      692.3956203384852
0.023813692033404853      692.1090513382425
0.024015668469493705      691.7528616868893
0.024218120028423832      691.3270513844261
0.024420742013481003      690.9290766202089
0.02462288751935683       690.4743359515963
0.02482471476325633       689.9628293785886
0.02502638271145666       689.3945569011856
0.025228050706933344      688.7695185193875
0.025429878092549915      688.087714233194
0.025632023834248962      687.3491440426051
0.025834646148682177      686.5538079476211
0.026037006051731277      685.7579666691684
0.026238891444565628      684.9192962439587
0.02644045986526205       684.0377966719919
0.026641869595683754      683.1134679532684
0.02684327929182417       682.1463100877878
0.027044847609757647      681.1363230755502
0.02724673283158932       680.0835069165556
0.027449092495796006      678.9878616108041
0.02765135518998453       677.9287161391787
0.027853143803698084      676.8598471833208
0.028054615743803996      675.7812547432301
0.028255929159991804      674.6929388189067
0.028457242575555555      673.5948994103505
0.028658714513790734      672.4871365175618
0.028860503124391312      671.3696501405404
0.029062765814231884      670.2424402792863
0.029265100752448706      669.1222243713388
0.02946696141141544       668.0286573229481
0.029668505276199596      666.9617391341139
0.029869890575077548      665.9214698048364
0.03007127591008127       664.9078493351157
0.030272819883157453      663.9208777249514
0.03047468072232762       662.9605549743438
0.030677015912237836      662.026881083293
0.030879305594778746      661.1763428402479
0.03108112103494649       660.3640721397852
0.031282619677010744      659.5900689819048
0.03148395970843373       658.8543333666065
0.0316852996905265        658.1568652938905
0.031886798184716555      657.4976647637569
0.032088613378814135      656.8767317762055
0.03229090271766436       656.2940663312365
0.03249314477533616       655.91211394361
0.03269491316800606       655.5864640040593
0.03289636518952694       655.3171165125839
0.03309765887540427       655.1040714691841
0.033298952634071295      654.9473288738598
0.033500404873789524      654.8468887266112
0.03370217362955133       654.8027510274377
0.03390441619436107       654.81491577634
0.03410686840969767       654.9399289452404
0.03430884535332711       655.1216362685348
0.0345105048019665        655.360037746223
0.034712005278138794      655.6551333783052
0.03491350567956333       656.0069231647814
0.03511516490413611       656.4154071056515
0.035317141474908095      656.8805852009154
0.03551959316946952       657.4024574505735
0.035722216260139425      658.0786653918615
0.03592436286389621       658.7981014738446
0.036126191200505704      659.5607656965227
0.03632786023882611       660.366658059896
0.03652952932442421       661.2157785639644
0.036731357802754806      662.1081272087279
0.03693350464234149       663.0437039941864
0.03713612806239678       664.0225089203401
0.03733848789969145       665.0687973646992
0.037540373227224554      666.1356157591132
0.03774194158292153       667.222964103582
0.03794335124849304       668.3308423981055
0.03814476087977932       669.4592506426836
0.03834632913270157       670.6081888373169
0.03854821428921239       671.7776569820048
0.038750573887637245      672.9676550767474
0.03895283596123875       674.2323421124862
0.039154623958694366      675.4820001639471
0.039356095285438375      676.7166292311299
0.03955740808971597       677.9362293140347
0.03975872089337115       679.1408004126615
0.03996019221824938       680.3303425270101
0.04016198021260023       681.504855657081
0.04036424228186526       682.6643398028737
0.040566577948397485      683.8099900145608
0.040768439330593605      684.9182896754761
0.04096998391520435       685.9892387856198
0.04117136993220262       687.0228373449919
0.04137275598532357       688.0190853535923
0.04157430067821714       688.9779828114212
0.04177616224060133       689.8995297184781
0.0419784981588055        690.7837260747634
0.04218078754816035       691.6551567829885
0.04238260269718259       692.4590253327856
0.04258410104946696       693.1953317241547
0.04278544079179545       693.864075957096
0.04298678048479618       694.4652580316093
0.043188278689213704      694.9988779476947
0.043390093592177985      695.4649357053523
0.04359238263785921       695.8634313045819
0.043794623705544454      696.3269911613659
0.04399639111513442       696.7171868512328
0.04419784215819482       697.0340183741829
0.04439913486792596       697.277485730216
0.044600427650446826      697.4475889193322
0.04480187891170468       697.5443279415314
0.045003646684386715      697.5677027968136
0.04520588825921017       697.517713485179
