% Model:              brazing.mph
% Version:            COMSOL 5.3.0.223
% Date:               Oct 24 2018, 04:15
% Dimension:          1
% Nodes:              225
% Expressions:        1
% Description:        Line graph
% x                       Height
0                         989.5708515576599
2.1191841480136804E-4     989.4338864009741
4.2353438892247565E-4     989.2469813041997
6.349689892252786E-4      989.0101362673369
8.463435942227858E-4      988.7233512903853
0.001057779685752053      988.3866263733456
0.001269398639759412      987.9999615162168
0.001481321517995422      987.5633567189997
0.0017252358262731596     986.9925729064872
0.0019686866163640313     986.3756900543655
0.0022118589563155885     985.7127081626348
0.002454938550168189      985.0036272312944
0.0026981113144448556     984.2484472603454
0.0029415629522145732     983.4471682497866
0.0031854785295931678     982.5997901996187
0.0034450106912723537     981.5959974248746
0.0037039863009040125     980.5489580663362
0.003962627412610827      979.4586721240045
0.0042211569424298        978.3251395978788
0.004479798094906585      977.1483604879598
0.004738773785972872      975.9283347942466
0.004998306069542035      974.6650625167398
0.005274868491808245      973.2190121322136
0.005550758931995686      971.7488755035741
0.0058262454501036105     970.2546526308214
0.006101597285810183      968.7363435139554
0.006377084073678616      967.1939481529765
0.006652975052596927      965.627466547884
0.006929538280995558      964.0368986986783
0.007206101510950518      962.4014504969074
0.007481992491406557      960.78247114611
0.007757479280801014      959.1799606462858
0.00803283111802884       957.5939189974355
0.008308317637660222      956.0243461995591
0.008584208079380276      954.4712422526558
0.008860770503195153      952.9346071567264
0.009120302815147717      951.5011721115867
0.00937927853441616       950.115118645176
0.009637919714987194      948.7764467574938
0.009896449272866283      947.4851564485408
0.010155090412673047      946.2412477183169
0.010414066050518256      945.0447205668216
0.01067359824059789       943.8955749940554
0.010917512776055054      942.853212244683
0.011160965100129169      941.8723591412655
0.011404139717480647      940.9530156838024
0.01164722176512739       940.0951818722943
0.011890396591516505      939.2988577067414
0.012133849333188814      938.5640431871426
0.012377764493855997      937.8907383134989
0.01258968694000722       937.3570971125638
0.012801305803204788      936.8745616235889
0.013012742322906452      936.4431318465746
0.013224118052332232      936.0628077815201
0.01343555464954572       935.7335894284264
0.013647173667633327      935.4554767872925
0.013859096345786744      935.228469858119
0.014071014760598048      935.0649400308042
0.014282630734729056      934.9523889066176
0.01449406533504172       934.8908164855594
0.014705439940049088      934.8802227676296
0.014916876031588231      934.9206077528285
0.015128494985605482      935.011971441155
0.015340417863851432      935.1543138326102
0.01558433217214941       935.3561989926219
0.015827782962260412      935.6270856832629
0.016070955302232025      935.966973904532
0.016314034896104664      936.3758636564299
0.0165572076604014        936.8537549389574
0.01680065929819124       937.4006477521131
0.01704457487559009       938.0165420958978
0.01730410703726679       938.7065107686859
0.017563082646895985      939.4478009625963
0.01782172375860034       940.2404126776288
0.018080253288416847      941.0843459137837
0.01833889444089119       941.9796006710613
0.018597870131955005      942.9261769494607
0.018857402415521692      943.9240747489824
0.019133964837753384      945.0052134989515
0.019409855277906563      946.1114401263177
0.019685341795980367      947.2427546310809
0.019960693631652874      948.3991570132413
0.0202361804194872        949.5806472727992
0.020512071398371242      950.7872254097539
0.020788634626735362      952.0188914241058
0.02106519785666259       953.218223627014
0.021341088837091095      954.4067680648071
0.021616575626458134      955.5845247374849
0.02189192746365859       956.7514936450481
0.022167413983262562      957.9076747874961
0.02244330442495508       959.0530681648289
0.022719866848742224      960.1876737770468
0.022979399160698737      961.1650859574012
0.023238374879971102      962.1171227726858
0.023497016060546046      963.0437842229
0.023755545618429033      963.9450703080441
0.02401418675823971       964.8209810281184
0.024273162396088833      965.6715163831221
0.024532694586172417      966.496676373056
0.02477660912165014       967.1966481397984
0.02502006144574469       967.8607564582547
0.025263236063116538      968.4890013284245
0.025506318110783622      969.0813827503083
0.025749492937193107      969.637900723906
0.02599294567888585       970.1585552492173
0.026236860839573585      970.6433463262425
0.026448783285734738      971.0104096025647
0.02666040214894219       971.3504316947332
0.026871838668653707      971.663412602748
0.027083214398089334      971.9493523266095
0.027294650995312687      972.2082508663178
0.027506270013410168      972.4401082218723
0.02771819269157351       972.6449243932733
0.02793011110637494       972.7717787205503
0.028141727080496122      972.8681524603577
0.028353161680798985      972.9340456126953
0.028564536285796558      972.9694581775631
0.028775972377325904      972.9743901549617
0.028987591331333325      972.9488415448901
0.029199514209569403      972.8928123473491
0.02944342851784522       972.6936582957047
0.02968687930793418       972.4437642999054
0.02993005164788383       972.1431303599514
0.030173131241734534      971.7917564758426
0.0304163040060093        971.3896426475795
0.0306597556437771        970.9367888751609
0.030903671221153783      970.4331951585881
0.031163203382828072      969.7387747839767
0.03142217899245488       968.9918986380832
0.03168082010415685       968.1925667209067
0.03193934963397098       967.3407790324483
0.032197990786442934      966.4365355727074
0.03245696647750436       965.4798363416838
0.032716498761068635      964.4706813393778
0.03299306118333142       963.2191536948304
0.03326895162351545       961.9448218946605
0.03354443814161999       960.6476859388682
0.03381978997732317       959.3277458274539
0.034095276765188226      957.985001560418
0.03437116774410313       956.6194531377593
0.03464773097249833       955.2311005594785
0.034924294202460265      953.7577732524688
0.03520018518292322       952.3084262543633
0.03547567197232456       950.883059565162
0.035751023809559274      949.4816731848651
0.036026510329197556      948.1042671134725
0.036302400770924524      946.7508413509837
0.03657896319474637       945.4213958973995
0.036838495506703706      944.1776529102668
0.03709747122597688       942.9953858446942
0.037356112406552636      941.8745947006813
0.03761464196443644       940.8152794782285
0.03787328310424792       939.8174401773359
0.03813225874209787       938.8810767980029
0.03839179093218227       938.00618934023
0.03863570546763781       937.228016076982
0.038879157791710306      936.5261728750316
0.03912233240906017       935.900659734379
0.03936541445670531       935.3514766550242
0.039608589283092806      934.8786236369671
0.039852042024763494      934.4821006802073
0.04009595718542905       934.1619077847455
0.040307879631580334      933.9326009482894
0.04051949849477797       933.7659947900942
0.0407309350144797        933.6620893101598
0.040942310743905544      933.620884508486
0.04115374734111909       933.6423803850736
0.04136536635920676       933.7265769399213
0.04157728903736024       933.8734741730301
0.04178920745215007       934.0883238093694
0.042000823426259694      934.3639425668183
0.042212258026551035      934.7003304453766
0.04242363263153709       935.0974874450445
0.0426350687230549        935.5554135658227
0.042846687677050764      936.0741088077099
0.04305861055527523       936.6535731707071
0.04330252486354604       937.3706233665849
0.043545975653630026      938.1642475842383
0.04378914799357473       939.0344458236667
0.044032227587420474      939.9812180848702
0.04427540035169028       941.0045643678496
0.04451885198945311       942.1044846726035
0.044762767566824783      943.2809789991328
0.045022299728516735      944.5777929926518
0.04528127533816108       945.9293563237842
0.045539916449880535      947.33566899253
0.045798445979712124      948.7967309988891
0.046057087132201545      950.312542342862
0.04631606282328052       951.8831030244477
0.046575595106862454      953.508413043647
0.04685215752913061       955.2379478720135
0.04712804796931999       956.9899123074352
0.04740353448742985       958.7643063499119
0.04767888632313835       960.5611299994438
0.04795437311100872       962.380383256031
0.048230264089928976      964.2220661196728
0.048506827318329566      966.0861785903702
0.04878339054829114       967.8435184157873
0.049059281528753745      969.5713960933448
0.04933476831815475       971.2698116230416
0.0496101201553891        972.9387650048785
0.04988560667502701       974.5782562388557
0.05016149711675364       976.1882853249723
0.050438059540575134      977.768852263229
0.05069759185254397       979.0765865463735
0.05095656757182859       980.3226448772208
0.05121520875241573       981.5070272557713
0.05147373831031092       982.6297336820245
0.051732379450133786      983.6907641559811
0.05199135508799517       984.6901186776403
0.05225088727809108       985.6277972470028
0.0524948018135407        986.3775757428383
0.052738254137607306      987.0545859450273
0.05298142875495131       987.6588278535697
0.05322451080259058       988.1903014684652
0.0534676856289722        988.6490067897149
0.05371113837063701       989.0349438173174
0.05395505353129665       989.3481125512736
0.05416697597743634       989.5460167329514
0.054378594840622414      989.6885594734221
0.05459003136031263       989.7757407726846
0.05480140708972696       989.8075606307397
0.05501284368692898       989.7840190475875
0.0552244627050051        989.7051160232273
0.05543638538314697       989.5708515576599
