% Model:              brazing.mph
% Version:            COMSOL 5.3.0.223
% Date:               Oct 24 2018, 02:00
% Dimension:          1
% Nodes:              225
% Expressions:        1
% Description:        Line graph
% x                       Height
0                         679.5859990950984
2.02242572596226E-4       679.5778873787173
4.040113375593453E-4      679.5074532904229
6.054635867748898E-4      679.3746968302155
8.067573541103817E-4      679.1796179980948
0.0010080510467017985     678.922216794061
0.001209503071861434      678.6024932181142
0.0014112714639836859     678.2204472702543
0.001613513515825394      677.7760789504811
0.001815803045808458      677.3825091301246
0.0020176184164428694     676.9430170076618
0.0022191170764546647     676.4576025830924
0.0024204572175778446     675.9262658564165
0.00262179740518867       675.3490068276342
0.002823296204553664      674.7258254967456
0.0030251118070788686     674.0567218637502
0.003227401660948015      673.3416959286486
0.0034297372965816655     672.6481761753708
0.003631598594156443      671.918158834667
0.0038331430353414214     671.1516439065368
0.004034528845142556      670.3486313909806
0.004235914622467191      669.5091212879981
0.004437458966299354      668.6331135975895
0.004639320101874085      667.7206083197548
0.004841655511239337      666.7716054544937
0.005043918276497792      665.9089221023144
0.005245706959792293      665.0340453760705
0.0054471789681153834     664.1469752757622
0.00564849245128538       663.2477118013894
0.005849805932728159      662.3362549529522
0.006051277935873691      661.4126047304507
0.00625306661055245       660.4767611338846
0.006455329363777148      659.528724163254
0.0066576887471433525     658.609812826453
0.0068595736811967985     657.7088576695139
0.007061141707903535      656.8258586924364
0.007262551112883539      655.9608158952209
0.007463960555734714      655.113729277867
0.007665528695965537      654.2845988403752
0.00786741381892875       653.4734245827449
0.0080697734661485        652.6802065049766
0.008272395437950266      651.9677750658074
0.008474540847339949      651.2770695934408
0.008676367906616744      650.608090087877
0.008878035577337231      649.960836549116
0.009079703197965442      649.3353089771576
0.009281530107084053      648.7315073720022
0.00948367526660416       648.1494317336493
0.009686296889411194      647.5890820620991
0.009888748367913874      647.2345730371683
0.010090724718905934      646.916861081111
0.010292383720552634      646.6359461939275
0.010493883896490891      646.3918283756175
0.010695384145210549      646.1845076261811
0.010897043365029401      646.0139839456183
0.011099020079070253      645.8802573339293
0.011301472064648224      645.7833277911138
0.011503924099142101      645.7883364371728
0.011705900863193036      645.8313226235412
0.011907560133099505      645.9122863502192
0.012109060430962503      646.0312276172068
0.012310560654077738      646.188146424504
0.012512219699917606      646.3830427721106
0.012714196091111104      646.615916660027
0.012916647604829811      646.8867680882527
0.013119269382981878      647.3081792127118
0.013321414683399362      647.7598496867496
0.013523241722808088      648.241779510366
0.013724909467002238      648.753968683561
0.013926577258472442      649.2964172063346
0.014128404439597363      649.8691250786869
0.014330549975836581      650.4720923006178
0.01453317208336263       651.1053188721274
0.014735531766219815      651.8074736503451
0.014937416940401616      652.5214612951604
0.015138985143475461      653.2472818065737
0.015340394656791169      653.9849351845849
0.015541804135826716      654.7344214291938
0.015743372236141022      655.4957405404007
0.015945257239325793      656.2688925182052
0.01614761668334845       657.0538773626078
0.01634987940592303       657.9562963598871
0.016551668047823844      658.8458508533164
0.016753140015983766      659.7225408428952
0.0169544534601584        660.586366328624
0.017155766903708087      661.4373273105024
0.017357238869994664      662.2754237885307
0.017559027508778132      663.1006557627087
0.01776129022699866       663.9130232330365
0.017963625484858744      664.7522131082206
0.018165486461237414      665.5673234128884
0.018367030641941378      666.3583541470401
0.018568416255992027      667.1253053106755
0.018769801906169285      667.8681769037945
0.018971346195167795      668.5869689263974
0.019173207351754082      669.2816813784842
0.019375542861313405      669.9523142600547
0.019577832661189145      670.6442621839459
0.019779648217873542      671.2847219740835
0.019981146975907166      671.8736936304675
0.020182487123025287      672.4111771530978
0.020383827220813066      672.8971725419744
0.020585325830972126      673.3316797970974
0.020787141141585735      673.7146989184669
0.020989430597769934      674.0462299060825
0.021191672662378012      674.4862800180525
0.021393441061935803      674.8637871457297
0.02159489309031221       675.1787512891144
0.021796186783028852      675.4311724482062
0.021997480548535182      675.6210506230054
0.022198932795108938      675.7483858135117
0.022400701557758636      675.8131780197255
0.02260294412950465       675.8154272416465
0.02280539620920995       675.8643271140014
0.023007373018156245      675.8484576942329
0.02320903233274668       675.7678189823408
0.023410532675187733      675.6224109783253
0.023612032942881025      675.4122336821862
0.023813692033404853      675.1372870939236
0.024015668469493705      674.7975712135375
0.024218120028423832      674.3930860410278
0.024420742013481003      674.0150800651802
0.02462288751935683       673.5842499987899
0.02482471476325633       673.1005958418571
0.02502638271145666       672.5641175943815
0.025228050706933344      671.9748152563634
0.025429878092549915      671.3326888278027
0.025632023834248962      670.6377383086992
0.025834646148682177      669.8899636990533
0.026037006051731277      669.1405239256407
0.026238891444565628      668.351406487779
0.02644045986526205       667.5226113854682
0.026641869595683754      666.6541386187083
0.02684327929182417       665.7459881874994
0.027044847609757647      664.7981600918414
0.02724673283158932       663.8106543317343
0.027449092495796006      662.783470907178
0.02765135518998453       661.7889378590971
0.027853143803698084      660.7855781572465
0.028054615743803996      659.7733918016262
0.028255929159991804      658.7523787922361
0.028457242575555555      657.7225391290763
0.028658714513790734      656.6838728121465
0.028860503124391312      655.6363798414474
0.029062765814231884      654.5800602169784
0.029265100752448706      653.5295052296103
0.02946696141141544       652.5037808413898
0.029668505276199596      651.5028870523167
0.029869890575077548      650.5268238623913
0.03007127591008127       649.5755912716133
0.030272819883157453      648.6491892799828
0.03047468072232762       647.7476178874999
0.030677015912237836      646.8708770941645
0.030879305594778746      646.0710259791298
0.03108112103494649       645.3066240896519
0.031282619677010744      644.5776714257307
0.03148395970843373       643.8841679873663
0.0316852996905265        643.2261137745585
0.031886798184716555      642.6035087873075
0.032088613378814135      642.0163530256133
0.03229090271766436       641.4646464894757
0.03249314477533616       641.1014607176679
0.03269491316800606       640.7906270179125
0.03289636518952694       640.5321453902094
0.03309765887540427       640.3260158345586
0.033298952634071295      640.1722383509601
0.033500404873789524      640.0708129394142
0.03370217362955133       640.0217395999205
0.03390441619436107       640.0250183324792
0.03410686840969767       640.1323484922622
0.03430884535332711       640.2923811305864
0.0345105048019665        640.5051162474517
0.034712005278138794      640.7705538428582
0.03491350567956333       641.088693916806
0.03511516490413611       641.459536469295
0.035317141474908095      641.8830815003254
0.03551959316946952       642.3593290098968
0.035722216260139425      642.9806834645982
0.03592436286389621       643.6423076995964
0.036126191200505704      644.3442017148913
0.03632786023882611       645.086365510483
0.03652952932442421       645.8687990863715
0.036731357802754806      646.6915024425566
0.03693350464234149       647.5544755790386
0.03713612806239678       648.4577184958174
0.03733848789969145       649.4232809410743
0.037540373227224554      650.408198887978
0.03774194158292153       651.4124723365285
0.03794335124849304       652.4361012867258
0.03814476087977932       653.47908573857
0.03834632913270157       654.5414256920609
0.03854821428921239       655.6231211471987
0.038750573887637245      656.7241721039834
0.03895283596123875       657.8953024462502
0.039154623958694366      659.0528729280378
0.039356095285438375      660.1968835493465
0.03955740808971597       661.3273343101758
0.03975872089337115       662.4442252105263
0.03996019221824938       663.5475562503973
0.04016198021260023       664.6373274297896
0.04036424228186526       665.7135387487025
0.040566577948397485      666.7767064781084
0.040768439330593605      667.8056835954904
0.04096998391520435       668.8004701008483
0.04117136993220262       669.7610659941822
0.04137275598532357       670.687471275492
0.04157430067821714       671.5796859447779
0.04177616224060133       672.4377100020397
0.0419784981588055        673.2615434472775
0.04218078754816035       674.071776596476
0.04238260269718259       674.8199109543006
0.04258410104946696       675.5059465207514
0.04278544079179545       676.1298832958283
0.04298678048479618       676.6917212795316
0.043188278689213704      677.1914604718609
0.043390093592177985      677.6291008728166
0.04359238263785921       678.0046424823983
0.043794623705544454      678.4399349332027
0.04399639111513442       678.8073351342309
0.04419784215819482       679.1068430854829
0.04439913486792596       679.3384587869585
0.044600427650446826      679.502182238658
0.04480187891170468       679.5980134405811
0.045003646684386715      679.6259523927279
0.04520588825921017       679.5859990950984
