% Model:              brazing.mph
% Version:            COMSOL 5.3.0.223
% Date:               Oct 24 2018, 03:52
% Dimension:          1
% Nodes:              161
% Expressions:        1
% Description:        Line graph
% x                       Height
0                         785.6739958231095
1.9693985890610136E-4     785.6103510558877
3.9298030043864816E-4     785.5635689143888
5.884188308682271E-4      785.5336493986132
7.835557095112735E-4      785.5205925085608
9.786925881542028E-4      785.5243982442315
0.0011741311185834375     785.5450666056253
0.0013701715601154056     785.5825975927424
0.0015671114190207022     785.6369912055826
0.0017642608961497635     785.4048731405827
0.0019605081241513326     785.1695731041094
0.0021561515411346144     784.9310910961618
0.002351492352702621      784.6894271167406
0.0025468331642698894     784.4445811658453
0.0027424765812509564     784.1965532434764
0.0029387238092488436     783.9453433496334
0.0031358732863727766     783.6909514843165
0.0033326885608882563     783.3475945338879
0.0035286060983021257     783.0075678778661
0.0037239228519497995     782.6708715162514
0.003918938519653848      782.3375054490438
0.004113954187357973      782.0074696762432
0.004309270941005876      781.68076419785
0.004505188478420127      781.3573890138636
0.004702003752936137      781.0373441242842
0.004899138702461749      780.7160969959599
0.005095371599302965      780.4084500004366
0.005291000816927052      780.1144031377142
0.005486327495291825      779.8339564077932
0.005681654173656831      779.5671098106731
0.0058772833912816074     779.313863346354
0.0060735162881239745     779.0742170148359
0.006270651237651189      778.848170816119
0.006467582778148322      778.6875104626184
0.006663615013526554      778.5565830195718
0.006859045413116663      778.4553884869796
0.0070541741987231454     778.3839268648413
0.007249302984329781      778.3421981531573
0.007444733383920351      778.3302023519274
0.007640765619299351      778.3479394611517
0.007837697159797551      778.3954094808302
0.008034634474091872      778.3748784429603
0.008230672405352359      778.3890716501306
0.008426108448549354      778.4379891023406
0.008621242851524007      778.5216307995908
0.008816377254498534      778.6399967418807
0.009011813297695145      778.7930869292105
0.009207851228955002      778.9809013615803
0.00940478854324844       779.2034400389899
0.00960192671152544       779.4962144868615
0.00979816278359587       779.8013725496925
0.009993795147248338      780.1189142274831
0.010189124956984269      780.4488395202337
0.010384454766719743      780.791148427944
0.010580087130370853      781.1458409506139
0.010776323202439026      781.5129170882434
0.01097346137071288       781.8923768408328
0.011170281912174305      782.2359464087873
0.011366204645540166      782.5889384710669
0.011561526547508357      782.9513530276719
0.011756547339625332      783.3231900786017
0.011951568131742307      783.7044496238567
0.0121468900337105        784.0951316634367
0.012342812767076368      784.495236197342
0.0125396333085378        784.9047632255723
0.012736771215691979      785.1727144446628
0.012933007030171178      785.4397107282422
0.013128639138602195      785.7057520763109
0.013323968694306592      785.9708384888685
0.013519298250011432      786.2349699659154
0.013714930358443784      786.4981465074512
0.0139111661729252        786.7603681134761
0.014108304080082462      787.0216347839904
0.014305241249097643      787.0050626360043
0.014501279037039759      786.9971258578463
0.014696714938233999      786.9978244495163
0.014891849199866372      787.0071584110143
0.015086983461498874      787.0251277423403
0.015282419362693495      787.0517324434946
0.01547845715063625       787.0869725144765
0.015675394319652317      787.1308479552869
0.015872325504405583      786.7593470274743
0.01606835738884011       786.399393729993
0.016263787440706973      786.0509880628434
0.016458915880206496      785.7141300260251
0.016654044319705866      785.3888196195386
0.016849474371572262      785.0750568433838
0.017045506256006017      784.7728416975602
0.017242437440758204      784.4821741820684
0.01743957168037589       783.9643998439168
0.017635803876907424      783.438832591267
0.01783143240066149       782.9054724241188
0.018026758388388308      782.3643193424724
0.01822208437611492       781.8153733463279
0.01841771289986836       781.2586344356849
0.018613945096398854      780.6941026105438
0.018811079336015085      780.1217778709043
0.019007894687321662      779.5272455941396
0.01920381230049143       778.9333135386815
0.019399129129200405      778.3399817045291
0.01959414487161704       777.747250091683
0.01978916061403359       777.1551187001429
0.01998447744274231       776.5635875299091
0.020180395055911654      775.9726565809814
0.020377210407217645      775.3823258533597
0.020574360469106157      774.8681353014946
0.020770608273960874      774.370600791012
0.020966252262493188      773.889722321912
0.021161593642948652      773.4254998941941
0.021356935023404883      772.9779335078589
0.021552579011939476      772.5470231629059
0.021748826816797996      772.1327688593354
0.021945976878691802      771.7351705971474
0.022142917141692885      771.4517475904084
0.022338957981867254      771.2065237162846
0.022534396907280062      770.9994989747755
0.02272953417907009       770.8306733658818
0.02292467145086023       770.700046889603
0.02312011037627338       770.6076195459392
0.02331615121644832       770.5533913348905
0.023513091479450195      770.537362256457
0.023710025135207962      770.4717378280533
0.02390605945730262       770.4502063920285
0.024101491924457957      770.4727679483827
0.024296622768016963      770.5394224971157
0.024491753611575823      770.6501700382277
0.02468718607873073       770.8050105717185
0.024883220400824673      771.0039440975885
0.025080154056581445      771.2469706158373
0.025277299572591536      771.6096093148741
0.025473542893039384      771.9889070791083
0.02566918243840792       772.3848639085396
0.025864519396400307      772.7974798031684
0.026059856354392216      773.2267547629941
0.026255495899759323      773.6726887880171
0.026451739220204794      774.1352818782374
0.026648884736211575      774.6145340336546
0.02684569473774919       775.149942353792
0.027041607073256636      775.6893533774897
0.027236918672681274      776.2327671047477
0.027431929210095855      776.7801835355662
0.027626939747510428      777.331602669945
0.027822251346935042      777.8870245078841
0.028018163682442445      778.4464490493837
0.028214973683980002      779.0098762944436
0.028412120943583204      779.557628638196
0.028608365984047285      780.0945500257366
0.02880400723361381       780.6206404570647
0.02899934588786498       781.1358999321811
0.02919468454211669       781.6403284510853
0.029390325791684838      782.1339260137773
0.02958657083215161       782.6166926202574
0.029783718091758563      783.0886282705254
0.029980652759780888      783.3944128403215
0.030176688080480362      783.7051649456254
0.030372121537075924      784.0208845864369
0.03056725336547531       784.341571762756
0.030762385193874833      784.6672264745829
0.030957818650470807      784.9978487219174
0.031153853971170976      785.3334385047596
0.031350788639194264      785.6739958231095
