% Model:              brazing.mph
% Version:            COMSOL 5.3.0.223
% Date:               Oct 24 2018, 03:39
% Dimension:          1
% Nodes:              161
% Expressions:        1
% Description:        Line graph
% x                       Height
0                         783.9182533832123
1.9693985890610136E-4     783.8618340807105
3.9298030043864816E-4     783.8203616733132
5.884188308682271E-4      783.7938361610198
7.835557095112735E-4      783.782257543831
9.786925881542028E-4      783.7856258217463
0.0011741311185834375     783.8039409947661
0.0013701715601154056     783.8372030628901
0.0015671114190207022     783.8854120261186
0.0017642608961497635     783.6460066129301
0.0019605081241513326     783.4017628694888
0.0021561515411346144     783.1526807957943
0.002351492352702621      782.8987603918466
0.0025468331642698894     782.6400016576459
0.0027424765812509564     782.3764045931922
0.0029387238092488436     782.1079691984856
0.0031358732863727766     781.8346954735258
0.0033326885608882563     781.4759326202912
0.0035286060983021257     781.1200937693542
0.0037239228519497995     780.7671789207153
0.003918938519653848      780.4171880743737
0.004113954187357973      780.0701212303301
0.004309270941005876      779.7259783885842
0.004505188478420127      779.3847595491362
0.004702003752936137      779.0464647119858
0.004899138702461749      778.709092974963
0.005095371599302965      778.3864279990604
0.005291000816927052      778.0784697842772
0.005486327495291825      777.7852183306139
0.005681654173656831      777.5066736380703
0.0058772833912816074     777.2428357066468
0.0060735162881239745     776.9937045363428
0.006270651237651189      776.7592801271586
0.006467582778148322      776.5914746502623
0.006663615013526554      776.4559285118206
0.006859045413116663      776.3526417118343
0.0070541741987231454     776.2816142503028
0.007249302984329781      776.2428461272265
0.007444733383920351      776.236337342605
0.007640765619299351      776.2620878964386
0.007837697159797551      776.3200977887271
0.008034634474091872      776.3099363258963
0.008230672405352359      776.336382707928
0.008426108448549354      776.3994369348223
0.008621242851524007      776.4990990065793
0.008816377254498534      776.6353689231988
0.009011813297695145      776.8082466846812
0.009207851228955002      777.0177322910262
0.00940478854324844       777.2638257422337
0.00960192671152544       777.5848175000009
0.00979816278359587       777.9187214133045
0.009993795147248338      778.2655374821451
0.010189124956984269      778.6252657065221
0.010384454766719743      778.9979060864358
0.010580087130370853      779.3834586218865
0.010776323202439026      779.7819233128736
0.01097346137071288       780.1933001593976
0.011170281912174305      780.5696223158899
0.011366204645540166      780.9546591066322
0.011561526547508357      781.3484105316244
0.011756547339625332      781.7508765908664
0.011951568131742307      782.1620572843584
0.0121468900337105        782.5819526121005
0.012342812767076368      783.0105625740924
0.0125396333085378        783.4478871703342
0.012736771215691979      783.7437021775869
0.012933007030171178      784.0363906149261
0.013128639138602195      784.3259524823519
0.013323968694306592      784.6123877798647
0.013519298250011432      784.8956965074639
0.013714930358443784      785.1758786651498
0.0139111661729252        785.4529342529223
0.014108304080082462      785.7268632707816
0.014305241249097643      785.7236745494878
0.014501279037039759      785.7259808353291
0.014696714938233999      785.7337821283053
0.014891849199866372      785.7470784284161
0.015086983461498874      785.7658697356618
0.015282419362693495      785.7901560500421
0.01547845715063625       785.8199373715573
0.015675394319652317      785.8552137002074
0.015872325504405583      785.477939836646
0.01606835738884011       785.1090479366954
0.016263787440706973      784.7485380003558
0.016458915880206496      784.396410027627
0.016654044319705866      784.0526640185091
0.016849474371572262      783.7172999730018
0.017045506256006017      783.3903178911056
0.017242437440758204      783.0717177728201
0.01743957168037589       782.5247628079145
0.017635803876907424      781.9679228691567
0.01783143240066149       781.4011979565474
0.018026758388388308      780.824588070086
0.01822208437611492       780.2380932097727
0.01841771289986836       779.6417133756075
0.018613945096398854      779.0354485675906
0.018811079336015085      778.4192987857217
0.019007894687321662      777.7815829031082
0.01920381230049143       777.1441503533398
0.019399129129200405      776.507001136417
0.01959414487161704       775.8701352523398
0.01978916061403359       775.2335527011079
0.01998447744274231       774.5972534827218
0.020180395055911654      773.9612375971811
0.020377210407217645      773.3255050444858
0.020574360469106157      772.7669660574364
0.020770608273960874      772.2266623792954
0.020966252262493188      771.7045940100633
0.021161593642948652      771.2007609497394
0.021356935023404883      770.7151631983244
0.021552579011939476      770.2478007558178
0.021748826816797996      769.79867362222
0.021945976878691802      769.3677817975307
0.022142917141692885      769.0525819744388
0.022338957981867254      768.7789396057052
0.022534396907280062      768.5468546913297
0.02272953417907009       768.3563272313128
0.02292467145086023       768.2073572256542
0.02312011037627338       768.0999446743537
0.02331615121644832       768.0340895774117
0.023513091479450195      768.0097919348278
0.023710025135207962      767.9359473430833
0.02390605945730262       767.9090346839511
0.024101491924457957      767.9290539574318
0.024296622768016963      767.9960051635256
0.024491753611575823      768.109888302232
0.02468718607873073       768.2707033735513
0.024883220400824673      768.4784503774835
0.025080154056581445      768.7331293140284
0.025277299572591536      769.1128710092383
0.025473542893039384      769.5109534976513
0.02566918243840792       769.9273767792673
0.025864519396400307      770.3621408540863
0.026059856354392216      770.8152457221084
0.026255495899759323      771.2866913833337
0.026451739220204794      771.7764778377622
0.026648884736211575      772.2846050853935
0.02684569473774919       772.8501995576408
0.027041607073256636      773.4200435156173
0.027236918672681274      773.9941369593233
0.027431929210095855      774.5724798887587
0.027626939747510428      775.1550723039232
0.027822251346935042      775.7419142048171
0.028018163682442445      776.3330055914402
0.028214973683980002      776.9283464637925
0.028412120943583204      777.507598037757
0.028608365984047285      778.0746376443932
0.02880400723361381       778.6294652837015
0.02899934588786498       779.1720809556817
0.02919468454211669       779.7024846603339
0.029390325791684838      780.2206763976577
0.02958657083215161       780.7266561676537
0.029783718091758563      781.2204239703216
0.029980652759780888      781.5485624662944
0.030176688080480362      781.8792981567354
0.030372121537075924      782.2126310416444
0.03056725336547531       782.5485611210216
0.030762385193874833      782.8870883948672
0.030957818650470807      783.2282128631806
0.031153853971170976      783.5719345259623
0.031350788639194264      783.9182533832123
