% Model:              brazing.mph
% Version:            COMSOL 5.3.0.223
% Date:               Oct 24 2018, 01:16
% Dimension:          1
% Nodes:              225
% Expressions:        1
% Description:        Line graph
% x                       Height
0                         656.6273239021004
2.02242572596226E-4       656.6145300544542
4.040113375593453E-4      656.5401042811465
6.054635867748898E-4      656.4040465821773
8.067573541103817E-4      656.2063569575466
0.0010080510467017985     655.9470354072545
0.001209503071861434      655.6260819313007
0.0014112714639836859     655.2434965296858
0.001613513515825394      654.7992792024093
0.001815803045808458      654.3956608582303
0.0020176184164428694     653.9466546607316
0.0022191170764546647     653.4522606099133
0.0024204572175778446     652.9124787057752
0.00262179740518867       652.3273089483175
0.002823296204553664      651.69675133754
0.0030251118070788686     651.020805873443
0.003227401660948015      650.2994725560262
0.0034297372965816655     649.5982232097817
0.003631598594156443      648.8612070328163
0.0038331430353414214     648.0884240251298
0.004034528845142556      647.2798741867224
0.004235914622467191      646.4355575175939
0.004437458966299354      645.5554740177445
0.004639320101874085      644.6396236871739
0.004841655511239337      643.6880065258824
0.005043918276497792      642.812794314588
0.005245706959792293      641.9263211732574
0.0054471789681153834     641.0285871018905
0.00564849245128538       640.1195921004872
0.005849805932728159      639.1993361690478
0.006051277935873691      638.267819307572
0.00625306661055245       637.3250415160602
0.006455329363777148      636.371002794512
0.0066576887471433525     635.446628861383
0.0068595736811967985     634.5407152160019
0.007061141707903535      633.6532618583686
0.007262551112883539      632.7842687884834
0.007463960555734714      631.933736006346
0.007665528695965537      631.1016635119563
0.00786741381892875       630.2880513053148
0.0080697734661485        629.4928993864208
0.008272395437950266      628.7752594803568
0.008474540847339949      628.0812358503224
0.008676367906616744      627.4108284963177
0.008878035577337231      626.7640374183425
0.009079703197965442      626.1408626163969
0.009281530107084053      625.541304090481
0.00948367526660416       624.9653618405949
0.009686296889411194      624.4130358667384
0.009888748367913874      624.0554346389197
0.010090724718905934      623.7363079104538
0.010292383720552634      623.4556556813408
0.010493883896490891      623.2134779515806
0.010695384145210549      623.0097747211732
0.010897043365029401      622.8445459901187
0.011099020079070253      622.7177917584171
0.011301472064648224      622.6295120260681
0.011503924099142101      622.6408516764549
0.011705900863193036      622.691701427329
0.011907560133099505      622.7820612786905
0.012109060430962503      622.9119312305395
0.012310560654077738      623.0813112828758
0.012512219699917606      623.2902014356996
0.012714196091111104      623.5386016890108
0.012916647604829811      623.8265120428093
0.013119269382981878      624.2578169557715
0.013321414683399362      624.7205318443858
0.013523241722808088      625.2146567086522
0.013724909467002238      625.7401915485708
0.013926577258472442      626.2971363641415
0.014128404439597363      626.8854911553641
0.014330549975836581      627.5052559222389
0.01453317208336263       628.1564306647658
0.014735531766219815      628.8745389274162
0.014937416940401616      629.6055720912693
0.015138985143475461      630.3495301563253
0.015340394656791169      631.106413122584
0.015541804135826716      631.8762209900453
0.015743372236141022      632.6589537587096
0.015945257239325793      633.4546114285765
0.01614761668334845       634.2631939996462
0.01634987940592303       635.1791440118255
0.016551668047823844      636.082771716896
0.016753140015983766      636.9740771148573
0.0169544534601584        637.8530602057097
0.017155766903708087      638.7197209894529
0.017357238869994664      639.5740594660873
0.017559027508778132      640.4160756356125
0.01776129022699866       641.2457694980287
0.017963625484858744      642.1026038583711
0.018165486461237414      642.9348988787796
0.018367030641941378      643.7426545592538
0.018568416255992027      644.525870899794
0.018769801906169285      645.2845479004001
0.018971346195167795      646.0186855610722
0.019173207351754082      646.7282838818101
0.019375542861313405      647.413342862614
0.019577832661189145      648.1163565359102
0.019779648217873542      648.7686508361188
0.019981146975907166      649.3702257632398
0.020182487123025287      649.9210813172732
0.020383827220813066      650.4212174982191
0.020585325830972126      650.8706343060771
0.020787141141585735      651.2693317408479
0.020989430597769934      651.6173098025308
0.021191672662378012      652.058461397479
0.021393441061935803      652.4374934854851
0.02159489309031221       652.7544060665492
0.021796186783028852      653.0091991406713
0.021997480548535182      653.2018727078512
0.022198932795108938      653.3324267680891
0.022400701557758636      653.4008613213849
0.02260294412950465       653.4071763677387
0.02280539620920995       653.4570661351715
0.023007373018156245      653.4424997424204
0.02320903233274668       653.3634771894853
0.023410532675187733      653.2199984763662
0.023612032942881025      653.012063603063
0.023813692033404853      652.7396725695758
0.024015668469493705      652.4028253759046
0.024218120028423832      652.0015220220495
0.024420742013481003      651.6143579053755
0.02462288751935683       651.174299970463
0.02482471476325633       650.6813482173117
0.02502638271145666       650.1355026459219
0.025228050706933344      649.5367632562933
0.025429878092549915      648.885130048426
0.025632023834248962      648.1806030223203
0.025834646148682177      647.4231821779757
0.026037006051731277      646.6611351712893
0.026238891444565628      645.8595106993326
0.02644045986526205       645.0183087621057
0.026641869595683754      644.1375293596085
0.02684327929182417       643.217172491841
0.027044847609757647      642.2572381588033
0.02724673283158932       641.2577263604953
0.027449092495796006      640.2186370969172
0.02765135518998453       639.2023209413254
0.027853143803698084      638.1775673294358
0.028054615743803996      637.1443762612483
0.028255929159991804      636.102747736763
0.028457242575555555      635.05268175598
0.028658714513790734      633.9941783188991
0.028860503124391312      632.9272374255205
0.029062765814231884      631.851859075844
0.029265100752448706      630.7828186101702
0.02946696141141544       629.73883265011
0.029668505276199596      628.7199011956634
0.029869890575077548      627.7260242468304
0.03007127591008127       626.757201803611
0.030272819883157453      625.8134338660054
0.03047468072232762       624.8947204340133
0.030677015912237836      624.0010615076349
0.030879305594778746      623.1807976227851
0.03108112103494649       622.3977422838013
0.031282619677010744      621.6518954906832
0.03148395970843373       620.9432572434308
0.0316852996905265        620.2718275420443
0.031886798184716555      619.6376063865235
0.032088613378814135      619.0405937768686
0.03229090271766436       618.4807897130793
0.03249314477533616       618.0983976442028
0.03269491316800606       617.7700632156775
0.03289636518952694       617.4957864275034
0.03309765887540427       617.2755672796806
0.033298952634071295      617.1094057722089
0.033500404873789524      616.9973019050884
0.03370217362955133       616.9392556783191
0.03390441619436107       616.9352670919011
0.03410686840969767       617.0330545785439
0.03430884535332711       617.1852296957253
0.0345105048019665        617.3917924434451
0.034712005278138794      617.6527428217034
0.03491350567956333       617.9680808305003
0.03511516490413611       618.3378064698358
0.035317141474908095      618.7619197397096
0.03551959316946952       619.2404206401221
0.035722216260139425      619.8572572235277
0.03592436286389621       620.5157434511325
0.036126191200505704      621.2158793229365
0.03632786023882611       621.9576648389401
0.03652952932442421       622.7410999991429
0.036731357802754806      623.566184803545
0.03693350464234149       624.4329192521462
0.03713612806239678       625.341303344947
0.03733848789969145       626.3098919087782
0.037540373227224554      627.2989232156032
0.03774194158292153       628.3083972654223
0.03794335124849304       629.3383140582351
0.03814476087977932       630.388673594042
0.03834632913270157       631.4594758728427
0.03854821428921239       632.5507208946374
0.038750573887637245      633.662408659426
0.03895283596123875       634.8367757555783
0.039154623958694366      635.9982029363741
0.039356095285438375      637.1466902018135
0.03955740808971597       638.2822375518963
0.03975872089337115       639.4048449866225
0.03996019221824938       640.5145125059923
0.04016198021260023       641.6112401100056
0.04036424228186526       642.6950277986624
0.040566577948397485      643.7660823751911
0.040768439330593605      644.8026605634839
0.04096998391520435       645.8047623635406
0.04117136993220262       646.7723877753614
0.04137275598532357       647.7055367989462
0.04157430067821714       648.6042094342952
0.04177616224060133       649.4684056814081
0.0419784981588055        650.2981255402849
0.04218078754816035       651.1103929276114
0.04238260269718259       651.861401675478
0.04258410104946696       652.5511517838844
0.04278544079179545       653.1796432528307
0.04298678048479618       653.7468760823169
0.043188278689213704      654.252850272343
0.043390093592177985      654.6975658229092
0.04359238263785921       655.0810227340153
0.043794623705544454      655.5094935528684
0.04399639111513442       655.8707691794809
0.04419784215819482       656.1648496138527
0.04439913486792596       656.3917348559837
0.044600427650446826      656.551424905874
0.04480187891170468       656.6439197635235
0.045003646684386715      656.6692194289324
0.04520588825921017       656.6273239021004
