% Model:              brazing.mph
% Version:            COMSOL 5.3.0.223
% Date:               Oct 24 2018, 05:53
% Dimension:          1
% Nodes:              225
% Expressions:        1
% Description:        Line graph
% x                       Height
0                         674.4397446152155
2.02242572596226E-4       674.4392714585688
4.040113375593453E-4      674.3818294892428
6.054635867748898E-4      674.2674187072375
8.067573541103817E-4      674.096039112553
0.0010080510467017985     673.8676907051891
0.001209503071861434      673.5823734851459
0.0014112714639836859     673.2400874524236
0.001613513515825394      672.8408326070219
0.001815803045808458      672.4926947854423
0.0020176184164428694     672.1024944686569
0.0022191170764546647     671.670231656666
0.0024204572175778446     671.1959063494694
0.00262179740518867       670.679518547067
0.002823296204553664      670.1210682494592
0.0030251118070788686     669.5205554566454
0.003227401660948015      668.8779801686262
0.0034297372965816655     668.2535498340534
0.003631598594156443      667.5960140714405
0.0038331430353414214     666.9053728807878
0.004034528845142556      666.181626262095
0.004235914622467191      665.4247742153624
0.004437458966299354      664.6348167405896
0.004639320101874085      663.8117538377768
0.004841655511239337      662.9555855069243
0.005043918276497792      662.1798962077246
0.005245706959792293      661.3932543894394
0.0054471789681153834     660.5956600520688
0.00564849245128538       659.7871131956126
0.005849805932728159      658.9676138200709
0.006051277935873691      658.1371619254438
0.00625306661055245       657.2957575117312
0.006455329363777148      656.443400578933
0.0066576887471433525     655.6162402025111
0.0068595736811967985     654.8056500115097
0.007061141707903535      654.0116300059285
0.007262551112883539      653.2341801857679
0.007463960555734714      652.4733005510277
0.007665528695965537      651.7289911017077
0.00786741381892875       651.0012518378085
0.0080697734661485        650.2900827593295
0.008272395437950266      649.6522370195033
0.008474540847339949      649.0340356439741
0.008676367906616744      648.4354786327417
0.008878035577337231      647.8565659858062
0.009079703197965442      647.2972977031677
0.009281530107084053      646.7576737848261
0.00948367526660416       646.2376942307814
0.009686296889411194      645.7373590410336
0.009888748367913874      645.4266904192588
0.010090724718905934      645.1493838446974
0.010292383720552634      644.9054393173495
0.010493883896490891      644.6948568372152
0.010695384145210549      644.5176364042944
0.010897043365029401      644.373778018587
0.011099020079070253      644.2632816800933
0.011301472064648224      644.1861473888131
0.011503924099142101      644.200794470521
0.011705900863193036      644.2498027315709
0.011907560133099505      644.3331721719625
0.012109060430962503      644.4509027916962
0.012310560654077738      644.6029945907718
0.012512219699917606      644.7894475691893
0.012714196091111104      645.0102617269488
0.012916647604829811      645.26543706405
0.013119269382981878      645.6594171879769
0.013321414683399362      646.0806882778661
0.013523241722808088      646.5292503337176
0.013724909467002238      647.0051033555314
0.013926577258472442      647.5082473433076
0.014128404439597363      648.038682297046
0.014330549975836581      648.5964082167468
0.01453317208336263       649.1814251024098
0.014735531766219815      649.8281575639248
0.014937416940401616      650.4853559755045
0.015138985143475461      651.1530203371486
0.015340394656791169      651.8311506488574
0.015541804135826716      652.5197469106306
0.015743372236141022      653.2188091224683
0.015945257239325793      653.9283372843704
0.01614761668334845       654.6483313963371
0.01634987940592303       655.4768526633636
0.016551668047823844      656.2935069904242
0.016753140015983766      657.0982943775191
0.0169544534601584        657.8912148246482
0.017155766903708087      658.6722683318114
0.017357238869994664      659.4414548990089
0.017559027508778132      660.1987745262406
0.01776129022699866       660.9442272135065
0.017963625484858744      661.7121055609451
0.018165486461237414      662.4579266040871
0.018367030641941378      663.1816903429323
0.018568416255992027      663.8833967774807
0.018769801906169285      664.5630459077324
0.018971346195167795      665.2206377336872
0.019173207351754082      665.8561722553454
0.019375542861313405      666.4696494727068
0.019577832661189145      667.0991474006718
0.019779648217873542      667.6813932499813
0.019981146975907166      668.2163870206354
0.020182487123025287      668.7041287126337
0.020383827220813066      669.1446183259767
0.020585325830972126      669.5378558606641
0.020787141141585735      669.883841316696
0.020989430597769934      670.1825746940723
0.021191672662378012      670.5809060471471
0.021393441061935803      670.9216212832504
0.02159489309031221       671.2047204023823
0.021796186783028852      671.4302034045429
0.021997480548535182      671.598070289732
0.022198932795108938      671.7083210579498
0.022400701557758636      671.7609557091962
0.02260294412950465       671.7559742434711
0.02280539620920995       671.7910785898854
0.023007373018156245      671.76657960993
0.02320903233274668       671.6824773036047
0.023410532675187733      671.5387716709096
0.023612032942881025      671.3354627118446
0.023813692033404853      671.0725504264097
0.024015668469493705      670.7500348146051
0.024218120028423832      670.3679158764307
0.024420742013481003      670.0150969654346
0.02462288751935683       669.61365024025
0.02482471476325633       669.1635757008769
0.02502638271145666       668.664873347315
0.025228050706933344      668.1175431795648
0.025429878092549915      667.5215851976259
0.025632023834248962      666.8769994014983
0.025834646148682177      666.1837857911823
0.026037006051731277      665.4883927862844
0.026238891444565628      664.7567116575907
0.02644045986526205       663.9887424051013
0.026641869595683754      663.1844850288163
0.02684327929182417       662.3439395287356
0.027044847609757647      661.4671059048594
0.02724673283158932       660.5539841571872
0.027449092495796006      659.6045742857195
0.02765135518998453       658.6867912998713
0.027853143803698084      657.7608943947475
0.028054615743803996      656.8268835703484
0.028255929159991804      655.8847588266736
0.028457242575555555      654.9345201637234
0.028658714513790734      653.9761675814977
0.028860503124391312      653.0097010799965
0.029062765814231884      652.0351206592197
0.029265100752448706      651.0651123566433
0.02946696141141544       650.1178364226304
0.029668505276199596      649.1932928571811
0.029869890575077548      648.2914816602953
0.03007127591008127       647.4124028319732
0.030272819883157453      646.5560563722146
0.03047468072232762       645.7224422810195
0.030677015912237836      644.911560558388
0.030879305594778746      644.1709645665402
0.03108112103494649       643.4623576971271
0.031282619677010744      642.7857399501488
0.03148395970843373       642.1411113256053
0.0316852996905265        641.5284718234965
0.031886798184716555      640.9478214438226
0.032088613378814135      640.3991601865833
0.03229090271766436       639.882488051779
0.03249314477533616       639.5423939984917
0.03269491316800606       639.249884820799
0.03289636518952694       639.0049605187012
0.03309765887540427       638.8076210921981
0.033298952634071295      638.6578665412898
0.033500404873789524      638.5556968659762
0.03370217362955133       638.5011120662573
0.03390441619436107       638.4941121421331
0.03410686840969767       638.5817869291228
0.03430884535332711       638.7173839886301
0.0345105048019665        638.900903320655
0.034712005278138794      639.1323449251975
0.03491350567956333       639.4117088022576
0.03511516490413611       639.7389949518354
0.035317141474908095      640.1142033739305
0.03551959316946952       640.5373340685435
0.035722216260139425      641.0962186059593
0.03592436286389621       641.6918331243198
0.036126191200505704      642.3241776236252
0.03632786023882611       642.9932521038752
0.03652952932442421       643.6990565650699
0.036731357802754806      644.4415910072095
0.03693350464234149       645.2208554302937
0.03713612806239678       646.0368498343228
0.03733848789969145       646.9100108084451
0.037540373227224554      647.8009312892378
0.03774194158292153       648.7096112767007
0.03794335124849304       649.6360507708341
0.03814476087977932       650.5802497716379
0.03834632913270157       651.5422082791118
0.03854821428921239       652.5219262932562
0.038750573887637245      653.519403814071
0.03895283596123875       654.5836665959417
0.039154623958694366      655.6358945129318
0.039356095285438375      656.6760875650414
0.03955740808971597       657.7042457522703
0.03975872089337115       658.7203690746186
0.03996019221824938       659.7244575320863
0.04016198021260023       660.7165111246734
0.04036424228186526       661.6965298523799
0.040566577948397485      662.6645074615352
0.040768439330593605      663.6018910755214
0.04096998391520435       664.5086806943386
0.04117136993220262       665.3848763179866
0.04137275598532357       666.2304779464655
0.04157430067821714       667.0454855797755
0.04177616224060133       667.8298992179161
0.0419784981588055        668.5837188608876
0.04218078754816035       669.3243892386364
0.04238260269718259       670.008727464534
0.04258410104946696       670.6367335385804
0.04278544079179545       671.2084074607758
0.04298678048479618       671.72374923112
0.043188278689213704      672.1827588496132
0.043390093592177985      672.5854363162554
0.04359238263785921       672.9317816310461
0.043794623705544454      673.3372665575441
0.04399639111513442       673.680754468763
0.04419784215819482       673.9622453647028
0.04439913486792596       674.1817392453635
0.044600427650446826      674.3392361107451
0.04480187891170468       674.4347359608477
0.045003646684386715      674.4682387956711
0.04520588825921017       674.4397446152155
