% Model:              brazing.mph
% Version:            COMSOL 5.3.0.223
% Date:               Oct 24 2018, 02:23
% Dimension:          1
% Nodes:              225
% Expressions:        1
% Description:        Line graph
% x                       Height
0                         681.3759963465233
2.02242572596226E-4       681.3625790965788
4.040113375593453E-4      681.2850537437113
6.054635867748898E-4      681.1434202879208
8.067573541103817E-4      680.9376787292073
0.0010080510467017985     680.6678290675708
0.001209503071861434      680.3338713030115
0.0014112714639836859     679.935805435529
0.001613513515825394      679.4736314651237
0.001815803045808458      679.0549183933628
0.0020176184164428694     678.5889821675265
0.0022191170764546647     678.0758227876153
0.0024204572175778446     677.5154402536288
0.00262179740518867       676.9078345655671
0.002823296204553664      676.2530057234302
0.0030251118070788686     675.550953727218
0.003227401660948015      674.8016785769308
0.0034297372965816655     674.0733791883092
0.003631598594156443      673.3077083475893
0.0038331430353414214     672.5046660547711
0.004034528845142556      671.6642523098544
0.004235914622467191      670.7864671128395
0.004437458966299354      669.8713104637263
0.004639320101874085      668.9187823625145
0.004841655511239337      667.9288828092048
0.005043918276497792      667.0199759224128
0.005245706959792293      666.0989991089464
0.0054471789681153834     665.1659523688054
0.00564849245128538       664.2208357019902
0.005849805932728159      663.2636491085003
0.006051277935873691      662.2943925883361
0.00625306661055245       661.3130661414975
0.006455329363777148      660.3196697679844
0.0066576887471433525     659.3570582478404
0.0068595736811967985     658.4132087337011
0.007061141707903535      657.4881212255667
0.007262551112883539      656.581795723437
0.007463960555734714      655.6942322273121
0.007665528695965537      654.8254307371918
0.00786741381892875       653.9753912530765
0.0080697734661485        653.1441137749658
0.008272395437950266      652.393714782514
0.008474540847339949      651.6672431849106
0.008676367906616744      650.9646989821555
0.008878035577337231      650.2860821742488
0.009079703197965442      649.6313927611905
0.009281530107084053      649.0006307429804
0.00948367526660416       648.3937961196186
0.009686296889411194      647.8108888911054
0.009888748367913874      647.4312594484365
0.010090724718905934      647.0909845104034
0.010292383720552634      646.7900640770059
0.010493883896490891      646.528498148244
0.010695384145210549      646.3062867241177
0.010897043365029401      646.1234298046272
0.011099020079070253      645.9799273897721
0.011301472064648224      645.8757794795526
0.011503924099142101      645.8755133051596
0.011705900863193036      645.9157810266714
0.011907560133099505      645.9965826440881
0.012109060430962503      646.1179181574095
0.012310560654077738      646.2797875666356
0.012512219699917606      646.4821908717666
0.012714196091111104      646.7251280728021
0.012916647604829811      647.0085991697426
0.013119269382981878      647.4416892194959
0.013321414683399362      647.907113989924
0.013523241722808088      648.4048734810272
0.013724909467002238      648.9349676928053
0.013926577258472442      649.4973966252585
0.014128404439597363      650.0921602783868
0.014330549975836581      650.7192586521901
0.01453317208336263       651.3786917466683
0.014735531766219815      652.1081782999797
0.014937416940401616      652.8509143615908
0.015138985143475461      653.6068999315014
0.015340394656791169      654.3761350097116
0.015541804135826716      655.1586195962213
0.015743372236141022      655.9543536910307
0.015945257239325793      656.7633372941397
0.01614761668334845       657.5855704055481
0.01634987940592303       658.5214342540968
0.016551668047823844      659.444633600142
0.016753140015983766      660.3551684436835
0.0169544534601584        661.2530387847213
0.017155766903708087      662.1382446232554
0.017357238869994664      663.010785959286
0.017559027508778132      663.8706627928129
0.01776129022699866       664.7178751238362
0.017963625484858744      665.5937214073659
0.018165486461237414      666.4445249928077
0.018367030641941378      667.2702858801614
0.018568416255992027      668.0710040694272
0.018769801906169285      668.8466795606048
0.018971346195167795      669.5973123536949
0.019173207351754082      670.3229024486964
0.019375542861313405      671.0234498456101
0.019577832661189145      671.7447141928227
0.019779648217873542      672.4135346557147
0.019981146975907166      673.029911234286
0.020182487123025287      673.5938439285369
0.020383827220813066      674.1053327384673
0.020585325830972126      674.5643776640769
0.020787141141585735      674.9709787053662
0.020989430597769934      675.3251358623347
0.021191672662378012      675.780684475871
0.021393441061935803      676.1721419132779
0.02159489309031221       676.4995081745553
0.021796186783028852      676.7627832597033
0.021997480548535182      676.9619671687218
0.022198932795108938      677.097059901611
0.022400701557758636      677.1680614583705
0.02260294412950465       677.1749718390008
0.02280539620920995       677.2283225064411
0.023007373018156245      677.2151871421152
0.02320903233274668       677.1355657460231
0.023410532675187733      676.9894583181648
0.023612032942881025      676.7768648585402
0.023813692033404853      676.4977853671496
0.024015668469493705      676.1522198439925
0.024218120028423832      675.7401682890694
0.024420742013481003      675.3458182166318
0.02462288751935683       674.8971341185445
0.02482471476325633       674.3941159948079
0.02502638271145666       673.8367638454216
0.025228050706933344      673.225077670386
0.025429878092549915      672.5590574697007
0.025632023834248962      671.838703243366
0.025834646148682177      671.0640149913819
0.026037006051731277      670.2854606754493
0.026238891444565628      669.4661822359524
0.02644045986526205       668.6061796728912
0.026641869595683754      667.7054529862659
0.02684327929182417       666.7640021760762
0.027044847609757647      665.7818272423222
0.02724673283158932       664.7589281850039
0.027449092495796006      663.6953050041215
0.02765135518998453       662.6581302552057
0.027853143803698084      661.6123105497032
0.028054615743803996      660.5578458876138
0.028255929159991804      659.4947362689375
0.028457242575555555      658.4229816936742
0.028658714513790734      657.3425821618241
0.028860503124391312      656.2535376733871
0.029062765814231884      655.1558482283632
0.029265100752448706      654.0647724237646
0.02946696141141544       652.9996464449448
0.029668505276199596      651.9604702919041
0.029869890575077548      650.9472439646424
0.03007127591008127       649.9599674631597
0.030272819883157453      648.9986407874561
0.03047468072232762       648.0632639375314
0.030677015912237836      647.1538369133856
0.030879305594778746      646.3208875636576
0.03108112103494649       645.5262087587556
0.031282619677010744      644.7698004986796
0.03148395970843373       644.0516627834297
0.0316852996905265        643.3717956130059
0.031886798184716555      642.7301989874081
0.032088613378814135      642.1268729066362
0.03229090271766436       641.5618173706905
0.03249314477533616       641.1808716733478
0.03269491316800606       640.8554650470771
0.03289636518952694       640.5855974918785
0.03309765887540427       640.3712690077516
0.033298952634071295      640.2124795946967
0.033500404873789524      640.1092292527137
0.03370217362955133       640.0615179818025
0.03390441619436107       640.0693457819633
0.03410686840969767       640.1828264883968
0.03430884535332711       640.3521603249114
0.0345105048019665        640.5773472915072
0.034712005278138794      640.858387388184
0.03491350567956333       641.195280614942
0.03511516490413611       641.588026971781
0.035317141474908095      642.0366264587014
0.03551959316946952       642.5410790757027
0.035722216260139425      643.1885835657017
0.03592436286389621       643.8787820993555
0.036126191200505704      644.6116746766642
0.03632786023882611       645.3872612976276
0.03652952932442421       646.2055419622458
0.036731357802754806      647.0665166705186
0.03693350464234149       647.9701854224464
0.03713612806239678       648.9165482180291
0.03733848789969145       649.925305893387
0.037540373227224554      650.9547934166516
0.03774194158292153       652.0050107878229
0.03794335124849304       653.0759580069013
0.03814476087977932       654.1676350738863
0.03834632913270157       655.2800419887781
0.03854821428921239       656.4131787515768
0.038750573887637245      657.5670453622822
0.03895283596123875       658.7863760946439
0.039154623958694366      659.9920437703765
0.039356095285438375      661.1840483894805
0.03955740808971597       662.3623899519557
0.03975872089337115       663.5270684578021
0.03996019221824938       664.6780839070196
0.04016198021260023       665.8154362996085
0.04036424228186526       666.9391256355684
0.040566577948397485      668.0493392310323
0.040768439330593605      669.1237106339431
0.04096998391520435       670.162239844301
0.04117136993220262       671.1649268621057
0.04137275598532357       672.1317716873574
0.04157430067821714       673.0627743200561
0.04177616224060133       673.9579347602017
0.0419784981588055        674.8172530077942
0.04218078754816035       675.6595282522565
0.04238260269718259       676.4380365668379
0.04258410104946696       677.1527779515386
0.04278544079179545       677.8037524063583
0.04298678048479618       678.3909599312972
0.043188278689213704      678.9144005263554
0.043390093592177985      679.3740741915326
0.04359238263785921       679.7699809268289
0.043794623705544454      680.2152615950073
0.04399639111513442       680.5906769086952
0.04419784215819482       680.8962268678927
0.04439913486792596       681.1319114725997
0.044600427650446826      681.2977307228164
0.04480187891170468       681.3936846185424
0.045003646684386715      681.4197731597781
0.04520588825921017       681.3759963465233
