% Model:              brazing.mph
% Version:            COMSOL 5.3.0.223
% Date:               Oct 24 2018, 05:54
% Dimension:          1
% Nodes:              161
% Expressions:        1
% Description:        Line graph
% x                       Height
0                         879.6879352213065
1.9693985890610136E-4     879.6145739263837
3.9298030043864816E-4     879.5604566604826
5.884188308682271E-4      879.5255834236033
7.835557095112735E-4      879.5099542157458
9.786925881542028E-4      879.5135690369101
0.0011741311185834375     879.536427887096
0.0013701715601154056     879.578530766304
0.0015671114190207022     879.6398776745335
0.0017642608961497635     879.4111935882828
0.0019605081241513326     879.1792688721672
0.0021561515411346144     878.9441035261858
0.002351492352702621      878.7056975503398
0.0025468331642698894     878.4640509446284
0.0027424765812509564     878.2191637090519
0.0029387238092488436     877.9710358436101
0.0031358732863727766     877.7196673483032
0.0033326885608882563     877.384587990185
0.0035286060983021257     877.0518801540571
0.0037239228519497995     876.7215438399197
0.003918938519653848      876.393579047773
0.004113954187357973      876.0679857776166
0.004309270941005876      875.7447640294505
0.004505188478420127      875.423913803275
0.004702003752936137      875.10543509909
0.004899138702461749      874.7924889647817
0.005095371599302965      874.4917041913053
0.005291000816927052      874.2030807786606
0.005486327495291825      873.9266187268473
0.005681654173656831      873.6623180358657
0.0058772833912816074     873.4101787057158
0.0060735162881239745     873.1702007363975
0.006270651237651189      872.9423841279109
0.006467582778148322      872.7870318710746
0.006663615013526554      872.6601872344439
0.006859045413116663      872.5618502180181
0.0070541741987231454     872.4920208217981
0.007249302984329781      872.4506990457832
0.007444733383920351      872.4378848899738
0.007640765619299351      872.4535783543696
0.007837697159797551      872.497779438971
0.008034634474091872      872.4690812826294
0.008230672405352359      872.4744331526246
0.008426108448549354      872.5138350489564
0.008621242851524007      872.5872869716246
0.008816377254498534      872.6947889206293
0.009011813297695145      872.8363408959709
0.009207851228955002      873.011942897649
0.00940478854324844       873.2215949256635
0.00960192671152544       873.5079250239365
0.00979816278359587       873.8053967951786
0.009993795147248338      874.1140102393905
0.010189124956984269      874.4337653565714
0.010384454766719743      874.7646621467217
0.010580087130370853      875.1067006098416
0.010776323202439026      875.4598807459307
0.01097346137071288       875.8242025549893
0.011170281912174305      876.1576494227314
0.011366204645540166      876.5000917869926
0.011561526547508357      876.8515296477732
0.011756547339625332      877.2119630050728
0.011951568131742307      877.5813918588916
0.0121468900337105        877.9598162092299
0.012342812767076368      878.3472360560871
0.0125396333085378        878.7436513994638
0.012736771215691979      879.0041368588348
0.012933007030171178      879.2635886957065
0.013128639138602195      879.5220069100791
0.013323968694306592      879.7793915019525
0.013519298250011432      880.0357424713267
0.013714930358443784      880.2910598182017
0.0139111661729252        880.5453435425776
0.014108304080082462      880.7985936444542
0.014305241249097643      880.7747552606749
0.014501279037039759      880.7617557764726
0.014696714938233999      880.7595951918478
0.014891849199866372      880.7682735068
0.015086983461498874      880.7877907213295
0.015282419362693495      880.8181468354363
0.01547845715063625       880.8593418491201
0.015675394319652317      880.9113757623815
0.015872325504405583      880.533017331606
0.01606835738884011       880.1689646799035
0.016263787440706973      879.8192178072737
0.016458915880206496      879.483776713717
0.016654044319705866      879.1626413992334
0.016849474371572262      878.8558118638226
0.017045506256006017      878.5632881074847
0.017242437440758204      878.2850701302199
0.01743957168037589       877.7765956006689
0.017635803876907424      877.2607603630248
0.01783143240066149       876.7375644172872
0.018026758388388308      876.2070077634563
0.01822208437611492       875.6690904015321
0.01841771289986836       875.1238123315146
0.018613945096398854      874.571173553404
0.018811079336015085      874.0111740671999
0.019007894687321662      873.4349759570324
0.01920381230049143       872.8586428712346
0.019399129129200405      872.2821748098069
0.01959414487161704       871.7055717727488
0.01978916061403359       871.1288337600607
0.01998447744274231       870.5519607717423
0.020180395055911654      869.974952807794
0.020377210407217645      869.3978098682154
0.020574360469106157      868.9040142124367
0.020770608273960874      868.4253192794173
0.020966252262493188      867.9617250691568
0.021161593642948652      867.5132315816558
0.021356935023404883      867.0798388169138
0.021552579011939476      866.661546774931
0.021748826816797996      866.2583554557074
0.021945976878691802      865.8702648592431
0.022142917141692885      865.6035505389406
0.022338957981867254      865.3734817659721
0.022534396907280062      865.1800585403372
0.02272953417907009       865.0232808620364
0.02292467145086023       864.9031487310693
0.02312011037627338       864.8196621474361
0.02331615121644832       864.7728211111368
0.023513091479450195      864.7626256221712
0.023710025135207962      864.6979606486296
0.02390605945730262       864.6763184043965
0.024101491924457957      864.6976988894713
0.024296622768016963      864.7621021038543
0.024491753611575823      864.8695280475455
0.02468718607873073       865.0199767205446
0.024883220400824673      865.2134481228521
0.025080154056581445      865.4499422544676
0.025277299572591536      865.8121398477448
0.025473542893039384      866.1893152123627
0.02566918243840792       866.5814683483217
0.025864519396400307      866.9885992556216
0.026059856354392216      867.4107079342624
0.026255495899759323      867.8477943842441
0.026451739220204794      868.2998586055668
0.026648884736211575      868.7669005982303
0.02684569473774919       869.295159038809
0.027041607073256636      869.8266720246703
0.027236918672681274      870.3614395558146
0.027431929210095855      870.8994616322415
0.027626939747510428      871.440738253951
0.027822251346935042      871.9852694209434
0.028018163682442445      872.5330551332185
0.028214973683980002      873.0840953907763
0.028412120943583204      873.625562611211
0.028608365984047285      874.1558880692243
0.02880400723361381       874.6750717648155
0.02899934588786498       875.183113697985
0.02919468454211669       875.680013868733
0.029390325791684838      876.1657722770591
0.02958657083215161       876.6403889229633
0.029783718091758563      877.1038638064459
0.029980652759780888      877.4025233132771
0.030176688080480362      877.7081397972589
0.030372121537075924      878.0207132583911
0.03056725336547531       878.3402436966734
0.030762385193874833      878.666731112106
0.030957818650470807      879.0001755046893
0.031153853971170976      879.3405768744227
0.031350788639194264      879.6879352213065
