% Model:              brazing.mph
% Version:            COMSOL 5.3.0.223
% Date:               Oct 24 2018, 05:49
% Dimension:          1
% Nodes:              225
% Expressions:        1
% Description:        Line graph
% x                       Height
0                         743.6037904192426
2.02242572596226E-4       743.5833624189082
4.040113375593453E-4      743.4867073323362
6.054635867748898E-4      743.3138251595267
8.067573541103817E-4      743.0647159004798
0.0010080510467017985     742.7393795551953
0.001209503071861434      742.3378161236733
0.0014112714639836859     741.8600256059136
0.001613513515825394      741.3060080019168
0.001815803045808458      740.8181270056641
0.0020176184164428694     740.2743916338142
0.0022191170764546647     739.6748018863669
0.0024204572175778446     739.0193577633222
0.00262179740518867       738.3080592646801
0.002823296204553664      737.5409063904409
0.0030251118070788686     736.7178991406041
0.003227401660948015      735.8390375151699
0.0034297372965816655     734.9917066967345
0.003631598594156443      734.0988393006173
0.0038331430353414214     733.1604353268185
0.004034528845142556      732.1764947753383
0.004235914622467191      731.1470176461764
0.004437458966299354      730.0720039393328
0.004639320101874085      728.9514536548077
0.004841655511239337      727.785366792601
0.005043918276497792      726.7347866647654
0.005245706959792293      725.6676588419748
0.0054471789681153834     724.583983324229
0.00564849245128538       723.4837601115285
0.005849805932728159      722.3669892038729
0.006051277935873691      721.2336706012621
0.00625306661055245       720.0838043036965
0.006455329363777148      718.9173903111757
0.0066576887471433525     717.7907310105735
0.0068595736811967985     716.6848506262971
0.007061141707903535      715.5997491583465
0.007262551112883539      714.5354266067218
0.007463960555734714      713.4918829714229
0.007665528695965537      712.4691182524498
0.00786741381892875       711.4671324498022
0.0080697734661485        710.4859255634808
0.008272395437950266      709.6067593773269
0.008474540847339949      708.7524793016096
0.008676367906616744      707.923085336329
0.008878035577337231      707.118577481485
0.009079703197965442      706.3389557370776
0.009281530107084053      705.5842201031066
0.00948367526660416       704.8543705795726
0.009686296889411194      704.149407166475
0.009888748367913874      703.6998768578721
0.010090724718905934      703.2935452743727
0.010292383720552634      702.9304124159769
0.010493883896490891      702.6104782826847
0.010695384145210549      702.3337428744959
0.010897043365029401      702.1002061914107
0.011099020079070253      701.9098682334292
0.011301472064648224      701.7627290005512
0.011503924099142101      701.7449333407362
0.011705900863193036      701.7720727417056
0.011907560133099505      701.8441472034594
0.012109060430962503      701.9611567259975
0.012310560654077738      702.1231013093198
0.012512219699917606      702.3299809534268
0.012714196091111104      702.5817956583179
0.012916647604829811      702.8785454239934
0.013119269382981878      703.3609772274268
0.013321414683399362      703.8795607368066
0.013523241722808088      704.4342959521327
0.013724909467002238      705.0251828734051
0.013926577258472442      705.652221500624
0.014128404439597363      706.3154118337892
0.014330549975836581      707.0147538729005
0.01453317208336263       707.7502476179584
0.014735531766219815      708.5748804929988
0.014937416940401616      709.4129368668798
0.015138985143475461      710.2644167396015
0.015340394656791169      711.1293201111639
0.015541804135826716      712.0076469815672
0.015743372236141022      712.8993973508109
0.015945257239325793      713.8045712188955
0.01614761668334845       714.7231685858208
0.01634987940592303       715.7934632310981
0.016551668047823844      716.8476089811841
0.016753140015983766      717.8856058360784
0.0169544534601584        718.9074537957814
0.017155766903708087      719.9131528602929
0.017357238869994664      720.9027030296129
0.017559027508778132      721.8761043037416
0.01776129022699866       722.8333566826786
0.017963625484858744      723.8292002055737
0.018165486461237414      724.7963159135878
0.018367030641941378      725.7347038067211
0.018568416255992027      726.6443638849736
0.018769801906169285      727.5252961483453
0.018971346195167795      728.3775005968361
0.019173207351754082      729.200977230446
0.019375542861313405      729.9957260491751
0.019577832661189145      730.8296341611219
0.019779648217873542      731.6003586341434
0.019981146975907166      732.3078994682393
0.020182487123025287      732.9522566634098
0.020383827220813066      733.533430219655
0.020585325830972126      734.0514201369746
0.020787141141585735      734.5062264153689
0.020989430597769934      734.8978490548377
0.021191672662378012      735.4416995665553
0.021393441061935803      735.9101136716879
0.02159489309031221       736.3030913702358
0.021796186783028852      736.6206326621989
0.021997480548535182      736.8627375475771
0.022198932795108938      737.0294060263706
0.022400701557758636      737.1206380985793
0.02260294412950465       737.136433764203
0.02280539620920995       737.2192557869303
0.023007373018156245      737.2239022090953
0.02320903233274668       737.150373030698
0.023410532675187733      736.9986682517388
0.023612032942881025      736.7687878722172
0.023813692033404853      736.4607318921337
0.024015668469493705      736.0745003114878
0.024218120028423832      735.61009313028
0.024420742013481003      735.1832778415882
0.02462288751935683       734.6929542022752
0.02482471476325633       734.1391222123412
0.02502638271145666       733.5217818717861
0.025228050706933344      732.8409331806098
0.025429878092549915      732.0965761388123
0.025632023834248962      731.2887107463938
0.025834646148682177      730.4173370033541
0.026037006051731277      729.5492854191684
0.026238891444565628      728.6328887746398
0.02644045986526205       727.6681470697682
0.026641869595683754      726.6550603045538
0.02684327929182417       725.5936284789963
0.027044847609757647      724.483851593096
0.02724673283158932       723.3257296468527
0.027449092495796006      722.1192626402666
0.02765135518998453       720.9617592259165
0.027853143803698084      719.7926220132688
0.028054615743803996      718.6118510023236
0.028255929159991804      717.4194461930811
0.028457242575555555      716.2154075855409
0.028658714513790734      714.9997351797033
0.028860503124391312      713.7724289755682
0.029062765814231884      712.5334889731356
0.029265100752448706      711.3038067533408
0.02946696141141544       710.1036995890856
0.029668505276199596      708.93316748037
0.029869890575077548      707.792210427194
0.03007127591008127       706.6808284295577
0.030272819883157453      705.599021487461
0.03047468072232762       704.5467896009037
0.030677015912237836      703.524132769886
0.030879305594778746      702.596198969567
0.03108112103494649       701.710631585836
0.031282619677010744      700.8674306186931
0.03148395970843373       700.0665960681382
0.0316852996905265        699.3081279341712
0.031886798184716555      698.5920262167925
0.032088613378814135      697.9182909160016
0.03229090271766436       697.2869220317989
0.03249314477533616       696.8798026303745
0.03269491316800606       696.5349073081794
0.03289636518952694       696.2522360652138
0.03309765887540427       696.0317889014774
0.033298952634071295      695.8735658169704
0.033500404873789524      695.777566811693
0.03370217362955133       695.7437918856448
0.03390441619436107       695.7722410388259
0.03410686840969767       695.9291616489595
0.03430884535332711       696.1488170503262
0.0345105048019665        696.431207242926
0.034712005278138794      696.7763322267588
0.03491350567956333       697.1841920018246
0.03511516490413611       697.6547865681234
0.035317141474908095      698.1881159256554
0.03551959316946952       698.7841800744204
0.035722216260139425      699.5517384152472
0.03592436286389621       700.366958836669
0.036126191200505704      701.2298413386857
0.03632786023882611       702.1403859212974
0.03652952932442421       703.098592584504
0.036731357802754806      704.1044613283055
0.03693350464234149       705.1579921527021
0.03713612806239678       706.2591850576935
0.03733848789969145       707.4376614096298
0.037540373227224554      708.6381251484147
0.03774194158292153       709.8605762740484
0.03794335124849304       711.1050147865307
0.03814476087977932       712.3714406858617
0.03834632913270157       713.6598539720413
0.03854821428921239       714.9702546450694
0.038750573887637245      716.3026427049465
0.03895283596123875       717.7209660605816
0.039154623958694366      719.1215120280217
0.039356095285438375      720.5042806072668
0.03955740808971597       721.8692717983166
0.03975872089337115       723.2164856011716
0.03996019221824938       724.5459220158311
0.04016198021260023       725.857581042296
0.04036424228186526       727.1514626805655
0.040566577948397485      728.4304167807256
0.040768439330593605      729.6668470448978
0.04096998391520435       730.8607534730821
0.04117136993220262       732.0121360652784
0.04137275598532357       733.1209948214866
0.04157430067821714       734.1873297417072
0.04177616224060133       735.2111408259395
0.0419784981588055        736.1924280741841
0.04218078754816035       737.165210131831
0.04238260269718259       738.0605984393729
0.04258410104946696       738.8785929968099
0.04278544079179545       739.6191938041417
0.04298678048479618       740.2824008613685
0.043188278689213704      740.8682141684902
0.043390093592177985      741.3766337255071
0.04359238263785921       741.8076595324187
0.043794623705544454      742.3226749361237
0.04399639111513442       742.7546906132994
0.04419784215819482       743.103706563946
0.04439913486792596       743.3697227880637
0.044600427650446826      743.552739285652
0.04480187891170468       743.6527560567113
0.045003646684386715      743.6697731012416
0.04520588825921017       743.6037904192426
