% Model:              brazing.mph
% Version:            COMSOL 5.3.0.223
% Date:               Oct 24 2018, 05:31
% Dimension:          1
% Nodes:              225
% Expressions:        1
% Description:        Line graph
% x                       Height
0                         808.6933937507932
2.1191841480136804E-4     808.5640478779145
4.2353438892247565E-4     808.3857942415201
6.349689892252786E-4      808.1586328416091
8.463435942227858E-4      807.8825636781825
0.001057779685752053      807.5575867512399
0.001269398639759412      807.183702060781
0.001481321517995422      806.7609096068062
0.0017252358262731596     806.2053494643475
0.0019686866163640313     805.6065758631943
0.0022118589563155885     804.9645888033464
0.002454938550168189      804.2793882848035
0.0026981113144448556     803.5509743075667
0.0029415629522145732     802.7793468716344
0.0031854785295931678     801.9645059770079
0.0034450106912723537     800.9897835825828
0.0037039863009040125     799.9739400671918
0.003962627412610827      798.9169754308349
0.0042211569424298        797.8188896735122
0.004479798094906585      796.679682795224
0.004738773785972872      795.4993547959697
0.004998306069542035      794.2779056757496
0.005274868491808245      792.8714484481687
0.005550758931995686      791.4424524943678
0.0058262454501036105     789.9909178143472
0.006101597285810183      788.5168444081067
0.006377084073678616      787.0202322756469
0.006652975052596927      785.5010814169667
0.006929538280995558      783.9593918320671
0.007206101510950518      782.3708856152881
0.007481992491406557      780.8003523524839
0.007757479280801014      779.2477920436544
0.00803283111802884       777.7132046887995
0.008308317637660222      776.1965902879195
0.008584208079380276      774.6979488410142
0.008860770503195153      773.2172803480836
0.009120302815147717      771.8343109511962
0.00937927853441616       770.4993915934948
0.009637919714987194      769.2125222749793
0.009896449272866283      767.9737029956499
0.010155090412673047      766.7829337555069
0.010414066050518256      765.6402145545493
0.01067359824059789       764.5455453927781
0.010917512776055054      763.5520558812012
0.011160965100129169      762.6199811115517
0.011404139717480647      761.7493210838289
0.01164722176512739       760.9400757980337
0.011890396591516505      760.1922452541659
0.012133849333188814      759.5058294522249
0.012377764493855997      758.8808283922114
0.01258968694000722       758.3887915616716
0.012801305803204788      757.9471241853777
0.013012742322906452      757.5558262633295
0.013224118052332232      757.2148977955277
0.01343555464954572       756.9243387819719
0.013647173667633327      756.6841492226619
0.013859096345786744      756.4943291175981
0.014071014760598048      756.3692799282134
0.014282630734729056      756.2942121047389
0.01449406533504172       756.2691256471745
0.014705439940049088      756.2940205555202
0.014916876031588231      756.3688968297764
0.015128494985605482      756.4937544699427
0.015340417863851432      756.6685934760193
0.01558433217214941       756.9029126888512
0.015827782962260412      757.2064108580611
0.016070955302232025      757.5790879836494
0.016314034896104664      758.0209440656157
0.0165572076604014        758.5319791039607
0.01680065929819124       759.1121930986834
0.01704457487559009       759.7615860497846
0.01730410703726679       760.483089213062
0.017563082646895985      761.254942910544
0.01782172375860034       762.0771471422298
0.018080253288416847      762.9497019081201
0.01833889444089119       763.8726072082153
0.018597870131955005      764.845863042514
0.018857402415521692      765.8694694110176
0.019133964837753384      766.9753089235413
0.019409855277906563      768.1053702931762
0.019685341795980367      769.2596535199224
0.019960693631652874      770.4381586037802
0.0202361804194872        771.6408855447495
0.020512071398371242      772.8678343428297
0.020788634626735362      774.1190049980215
0.02106519785666259       775.3376948246731
0.021341088837091095      776.5447273857923
0.021616575626458134      777.740102681379
0.02189192746365859       778.9238207114335
0.022167413983262562      780.0958814759559
0.02244330442495508       781.2562849749457
0.022719866848742224      782.4050312084033
0.022979399160698737      783.3875029831735
0.023238374879971102      784.3445561334767
0.023497016060546046      785.2761906593124
0.023755545618429033      786.182406560681
0.02401418675823971       787.063203837583
0.024273162396088833      787.9185824900175
0.024532694586172417      788.7485425179849
0.02477660912165014       789.4480933841656
0.02502006144574469       790.1106003710496
0.025263236063116538      790.7360634786356
0.025506318110783622      791.3244827069246
0.025749492937193107      791.8758580559171
0.02599294567888585       792.3901895256114
0.026236860839573585      792.8674771160089
0.026448783285734738      793.224474218927
0.02666040214894219       793.5557495554898
0.026871838668653707      793.8613031256967
0.027083214398089334      794.1411349295485
0.027294650995312687      794.395244967045
0.027506270013410168      794.6236332381853
0.02771819269157351       794.8262997429707
0.02793011110637494       794.9429599674767
0.028141727080496122      795.031003676837
0.028353161680798985      795.0904308710509
0.028564536285796558      795.1212415501187
0.028775972377325904      795.123435714041
0.028987591331333325      795.0970133628167
0.029199514209569403      795.0419744964464
0.02944342851784522       794.8378541095425
0.02968687930793418       794.5831773091116
0.02993005164788383       794.2779440951543
0.030173131241734534      793.9221544676701
0.0304163040060093        793.5158084266594
0.0306597556437771        793.0589059721218
0.030903671221153783      792.5514471040575
0.031163203382828072      791.845622667687
0.03142217899245488       791.0874456621067
0.03168082010415685       790.2769160873155
0.03193934963397098       789.4140339433139
0.032197990786442934      788.4987992301027
0.03245696647750436       787.5312119476804
0.032716498761068635      786.511272096048
0.03299306118333142       785.2390733769615
0.03326895162351545       783.9435101071164
0.03354443814161999       782.6245822865129
0.03381978997732317       781.2822899151507
0.034095276765188226      779.9166329930302
0.03437116774410313       778.5276115201508
0.03464773097249833       777.1152254965131
0.034924294202460265      775.6182886983496
0.03520018518292322       774.1449531764794
0.03547567197232456       772.6952189309019
0.035751023809559274      771.2690859616174
0.036026510329197556      769.8665542686264
0.036302400770924524      768.4876238519279
0.03657896319474637       767.1322947115226
0.036838495506703706      765.8628072326752
0.03709747122597688       764.6546298828329
0.037356112406552636      763.5077626619951
0.03761464196443644       762.4222055701626
0.03787328310424792       761.3979586073355
0.03813225874209787       760.4350217735126
0.03839179093218227       759.5333950686951
0.03863570546763781       758.7270845205459
0.038879157791710306      757.9966126757093
0.03912233240906017       757.341979534185
0.03936541445670531       756.7631850959734
0.039608589283092806      756.2602293610747
0.039852042024763494      755.833112329488
0.04009595718542905       755.4818340012142
0.040307879631580334      755.2228623668356
0.04051949849477797       755.0257136596557
0.0407309350144797        754.8903878796742
0.040942310743905544      754.8168850268913
0.04115374734111909       754.8052051013075
0.04136536635920676       754.855348102922
0.04157728903736024       754.9673140317353
0.04178920745215007       755.1469266554424
0.042000823426259694      755.3864669879375
0.042212258026551035      755.6859350292201
0.04242363263153709       756.0453307792908
0.0426350687230549        756.4646542381496
0.042846687677050764      756.9439054057958
0.04305861055527523       757.4830842822302
0.04330252486354604       758.1479817023011
0.043545975653630026      758.890165292518
0.04378914799357473       759.7096350528806
0.044032227587420474      760.6063909833887
0.04427540035169028       761.580433084043
0.04451885198945311       762.6317613548428
0.044762767566824783      763.7603757957885
0.045022299728516735      765.0035138472496
0.04528127533816108       766.3014035304683
0.045539916449880535      767.654044845444
0.045798445979712124      769.0614377921771
0.046057087132201545      770.5235823706679
0.04631606282328052       772.0404785809154
0.046575595106862454      773.6121264229206
0.04685215752913061       775.2847350556975
0.04712804796931999       776.9814698473089
0.04740353448742985       778.7023307977535
0.04767888632313835       780.4473179070325
0.04795437311100872       782.2164311751457
0.048230264089928976      784.0096706020921
0.048506827318329566      785.827036187873
0.04878339054829114       787.5413984294718
0.049059281528753745      789.2282751555441
0.04933476831815475       790.8876663660898
0.0496101201553891        792.5195720611094
0.04988560667502701       794.1239922406027
0.05016149711675364       795.7009269045692
0.050438059540575134      797.2503760530095
0.05069759185254397       798.521891581181
0.05095656757182859       799.7343183696036
0.05121520875241573       800.8876564182773
0.05147373831031092       801.9819057272022
0.051732379450133786      803.0170662963786
0.05199135508799517       803.9931381258058
0.05225088727809108       804.9101212154843
0.0524948018135407        805.6392130871146
0.052738254137607306      806.2969779529197
0.05298142875495131       806.8834158129004
0.05322451080259058       807.3985266670562
0.0534676856289722        807.8423105153878
0.05371113837063701       808.214767357894
0.05395505353129665       808.5158971945756
0.05416697597743634       808.7022596413641
0.054378594840622414      808.8349534895189
0.05459003136031263       808.9139787390405
0.05480140708972696       808.9393353899287
0.05501284368692898       808.9110234421838
0.0552244627050051        808.829042895805
0.05543638538314697       808.6933937507932
