% Model:              brazing.mph
% Version:            COMSOL 5.3.0.223
% Date:               Oct 24 2018, 04:41
% Dimension:          1
% Nodes:              161
% Expressions:        1
% Description:        Line graph
% x                       Height
0                         659.0094747696199
1.9693985890610136E-4     658.9757245583047
3.9298030043864816E-4     658.9529962946776
5.884188308682271E-4      658.941289978739
7.835557095112735E-4      658.9406056104884
9.786925881542028E-4      658.9509431899263
0.0011741311185834375     658.9723027170522
0.0013701715601154056     659.0046841918665
0.0015671114190207022     659.0480876143691
0.0017642608961497635     658.8091645836438
0.0019605081241513326     658.5656382072904
0.0021561515411346144     658.3175084853087
0.002351492352702621      658.0647754176991
0.0025468331642698894     657.8074390044615
0.0027424765812509564     657.5454992455957
0.0029387238092488436     657.2789561411018
0.0031358732863727766     657.00780969098
0.0033326885608882563     656.6377971605319
0.0035286060983021257     656.2720427127954
0.0037239228519497995     655.9105463477703
0.003918938519653848      655.5533080654567
0.004113954187357973      655.2003278658545
0.004309270941005876      654.8516057489638
0.004505188478420127      654.5071417147847
0.004702003752936137      654.166935763317
0.004899138702461749      653.8169542779009
0.005095371599302965      653.4832148696782
0.005291000816927052      653.1657175386492
0.005486327495291825      652.8644622848137
0.005681654173656831      652.5794491081718
0.0058772833912816074     652.3106780087234
0.0060735162881239745     652.0581489864685
0.006270651237651189      651.8218620414071
0.006467582778148322      651.6435453532353
0.006663615013526554      651.4984644917432
0.006859045413116663      651.3866194569308
0.0070541741987231454     651.3080102487985
0.007249302984329781      651.262636867346
0.007444733383920351      651.2504993125733
0.007640765619299351      651.2715975844804
0.007837697159797551      651.3259316830674
0.008034634474091872      651.3215187139538
0.008230672405352359      651.3545244094116
0.008426108448549354      651.4249487694418
0.008621242851524007      651.5327917940436
0.008816377254498534      651.6780534832175
0.009011813297695145      651.860733836963
0.009207851228955002      652.0808328552806
0.00940478854324844       652.3383505381701
0.00960192671152544       652.6593956946725
0.00979816278359587       652.9950228406659
0.009993795147248338      653.3452319761508
0.010189124956984269      653.7100231011265
0.010384454766719743      654.0893962155934
0.010580087130370853      654.4833513195514
0.010776323202439026      654.8918884130006
0.01097346137071288       655.3150074959409
0.011170281912174305      655.6962014994899
0.011366204645540166      656.0866944499998
0.011561526547508357      656.4864863474706
0.011756547339625332      656.8955771919026
0.011951568131742307      657.3139669832955
0.0121468900337105        657.7416557216495
0.012342812767076368      658.1786434069644
0.0125396333085378        658.6249300392403
0.012736771215691979      658.9197729664701
0.012933007030171178      659.2120755490245
0.013128639138602195      659.501837786904
0.013323968694306592      659.7890596801083
0.013519298250011432      660.0737412286373
0.013714930358443784      660.3558824324914
0.0139111661729252        660.6354832916703
0.014108304080082462      660.912543806174
0.014305241249097643      660.909089226633
0.014501279037039759      660.9084793670411
0.014696714938233999      660.9107142273984
0.014891849199866372      660.915793807705
0.015086983461498874      660.9237181079607
0.015282419362693495      660.9344871281655
0.01547845715063625       660.9481008683196
0.015675394319652317      660.9645593284228
0.015872325504405583      660.5865448031366
0.01606835738884011       660.2135290883938
0.016263787440706973      659.8455121841944
0.016458915880206496      659.4824940905386
0.016654044319705866      659.1244748074262
0.016849474371572262      658.7714543348574
0.017045506256006017      658.4234326728318
0.017242437440758204      658.0804098213499
0.01743957168037589       657.5122316995803
0.017635803876907424      656.933728752608
0.01783143240066149       656.3449009804331
0.018026758388388308      655.7457483830553
0.01822208437611492       655.1362709604751
0.01841771289986836       654.5164687126921
0.018613945096398854      653.8863416397065
0.018811079336015085      653.2458897415183
0.019007894687321662      652.57242653006
0.01920381230049143       651.9006859009065
0.019399129129200405      651.2306678540571
0.01959414487161704       650.5623723895122
0.01978916061403359       649.8957995072718
0.01998447744274231       649.2309492073358
0.020180395055911654      648.5678214897043
0.020377210407217645      647.9064163543773
0.020574360469106157      647.3135233746912
0.020770608273960874      646.7415202323447
0.020966252262493188      646.1904069273377
0.021161593642948652      645.6601834596704
0.021356935023404883      645.1508498293426
0.021552579011939476      644.6624060363546
0.021748826816797996      644.1948520807059
0.021945976878691802      643.748187962397
0.022142917141692885      643.4089012411653
0.022338957981867254      643.1138227307991
0.022534396907280062      642.8629524312985
0.02272953417907009       642.6562903426633
0.02292467145086023       642.4938364648937
0.02312011037627338       642.3755907979895
0.02331615121644832       642.3015533419509
0.023513091479450195      642.2717240967778
0.023710025135207962      642.2024005124398
0.02390605945730262       642.1826381350733
0.024101491924457957      642.212436964678
0.024296622768016963      642.2917970012543
0.024491753611575823      642.4207182448021
0.02468718607873073       642.5992006953212
0.024883220400824673      642.8272443528119
0.025080154056581445      643.104849217274
0.025277299572591536      643.4965840147568
0.025473542893039384      643.9096286231138
0.02566918243840792       644.3439830423449
0.025864519396400307      644.7996472724502
0.026059856354392216      645.2766213134297
0.026255495899759323      645.7749051652834
0.026451739220204794      646.2944988280112
0.026648884736211575      646.8354023016133
0.02684569473774919       647.428238210438
0.027041607073256636      648.0263298412389
0.027236918672681274      648.6296771940156
0.027431929210095855      649.2382802687683
0.027626939747510428      649.8521390654971
0.027822251346935042      650.4712535842019
0.028018163682442445      651.0956238248828
0.028214973683980002      651.7252497875395
0.028412120943583204      652.3295730702848
0.028608365984047285      652.9218531993893
0.02880400723361381       653.5020901748526
0.02899934588786498       654.070283996675
0.02919468454211669       654.6264346648564
0.029390325791684838      655.1705421793971
0.02958657083215161       655.7026065402968
0.029783718091758563      656.2226277475554
0.029980652759780888      656.5717825817493
0.030176688080480362      656.920709142676
0.030372121537075924      657.269407430335
0.03056725336547531       657.6178774447268
0.030762385193874833      657.9661191858512
0.030957818650470807      658.3141326537082
0.031153853971170976      658.6619178482978
0.031350788639194264      659.0094747696199
