% Model:              brazing.mph
% Version:            COMSOL 5.3.0.223
% Date:               Oct 24 2018, 00:40
% Dimension:          1
% Nodes:              225
% Expressions:        1
% Description:        Line graph
% x                       Height
0                         661.0488257908221
2.1191841480136804E-4     660.9582780096572
4.2353438892247565E-4     660.8287762329683
6.349689892252786E-4      660.6603204607545
8.463435942227858E-4      660.4529106930165
0.001057779685752053      660.2065469297544
0.001269398639759412      659.9212291709674
0.001481321517995422      659.5969574166563
0.0017252358262731596     659.1638178749736
0.0019686866163640313     658.7017316338369
0.0022118589563155885     658.2106986932458
0.002454938550168189      657.6907190532006
0.0026981113144448556     657.1417927137014
0.0029415629522145732     656.5639196747479
0.0031854785295931678     655.9570999363403
0.0034450106912723537     655.1932009082163
0.0037039863009040125     654.4000236504723
0.003962627412610827      653.577568163108
0.0042211569424298        652.7258344461236
0.004479798094906585      651.8448224995194
0.004738773785972872      650.9345323232947
0.004998306069542035      649.99496391745
0.005274868491808245      648.8718679536466
0.005550758931995686      647.7334930579112
0.0058262454501036105     646.5798392302438
0.006101597285810183      645.4109064706444
0.006377084073678616      644.2266947791132
0.006652975052596927      643.0272041556498
0.006929538280995558      641.8124346002546
0.007206101510950518      640.5374749284526
0.007481992491406557      639.2825565325232
0.007757479280801014      638.0476794124666
0.00803283111802884       636.8328435682827
0.008308317637660222      635.6380489999717
0.008584208079380276      634.4632957075332
0.008860770503195153      633.3085836909677
0.009120302815147717      632.2173654856471
0.00937927853441616       631.1697076056661
0.009637919714987194      630.1656100510248
0.009896449272866283      629.2050728217232
0.010155090412673047      628.2880959177614
0.010414066050518256      627.4146793391391
0.01067359824059789       626.5848230858566
0.010917512776055054      625.8276756769563
0.011160965100129169      625.1232513552411
0.011404139717480647      624.4715501207106
0.01164722176512739       623.872571973365
0.011890396591516505      623.3263169132047
0.012133849333188814      622.8327849402287
0.012377764493855997      622.3919760544379
0.01258968694000722       622.0536523936821
0.012801305803204788      621.7570382228428
0.013012742322906452      621.5021335419194
0.013224118052332232      621.2889383509124
0.01343555464954572       621.117452649822
0.013647173667633327      620.9876764386474
0.013859096345786744      620.8996097173892
0.014071014760598048      620.870928439022
0.014282630734729056      620.8832440620782
0.01449406533504172       620.936556586558
0.014705439940049088      621.0308660124612
0.014916876031588231      621.1661723397881
0.015128494985605482      621.3424755685382
0.015340417863851432      621.559775698712
0.01558433217214941       621.831116687038
0.015827782962260412      622.1620082125603
0.016070955302232025      622.5524502752786
0.016314034896104664      623.0024428751933
0.0165572076604014        623.5119860123045
0.01680065929819124       624.0810796866115
0.01704457487559009       624.7097238981149
0.01730410703726679       625.3933034465173
0.017563082646895985      626.1191001038629
0.01782172375860034       626.8871138701517
0.018080253288416847      627.6973447453836
0.01833889444089119       628.549792729559
0.018597870131955005      629.4444578226774
0.018857402415521692      630.3813400247391
0.019133964837753384      631.3742138118323
0.019409855277906563      632.387706268633
0.019685341795980367      633.4218173951413
0.019960693631652874      634.4765471913572
0.0202361804194872        635.5518956572809
0.020512071398371242      636.6478627929118
0.020788634626735362      637.7644485982505
0.02106519785666259       638.8377694669437
0.021341088837091095      639.9010606885807
0.021616575626458134      640.9543222631617
0.02189192746365859       641.9975541906866
0.022167413983262562      643.0307564711559
0.02244330442495508       644.0539291045686
0.022719866848742224      645.0670720909256
0.022979399160698737      645.8920704788108
0.023238374879971102      646.6985620254703
0.023497016060546046      647.4865467309039
0.023755545618429033      648.256024595112
0.02401418675823971       649.0069956180946
0.024273162396088833      649.7394597998514
0.024532694586172417      650.4534171403826
0.02477660912165014       651.0262647864317
0.02502006144574469       651.5658759977578
0.025263236063116538      652.0722507743603
0.025506318110783622      652.54538911624
0.025749492937193107      652.9852910233966
0.02599294567888585       653.3919564958298
0.026236860839573585      653.7653855335401
0.026448783285734738      654.0268870357914
0.02666040214894219       654.2740887701356
0.026871838668653707      654.5069907365723
0.027083214398089334      654.7255929351019
0.027294650995312687      654.9298953657244
0.027506270013410168      655.1198980284394
0.02771819269157351       655.2956009232472
0.02793011110637494       655.36192826
0.028141727080496122      655.4127896992491
0.028353161680798985      655.4481852409941
0.028564536285796558      655.4681148852357
0.028775972377325904      655.4725786319734
0.028987591331333325      655.4615764812072
0.029199514209569403      655.4351084329375
0.02944342851784522       655.266507345488
0.02968687930793418       655.0531164165931
0.02993005164788383       654.7949356462525
0.030173131241734534      654.4919650344665
0.0304163040060093        654.1442045812353
0.0306597556437771        653.7516542865583
0.030903671221153783      653.314314150436
0.031163203382828072      652.6712638096851
0.03142217899245488       651.9832990431954
0.03168082010415685       651.2504198509671
0.03193934963397098       650.4726262329999
0.032197990786442934      649.6499181892943
0.03245696647750436       648.7822957198497
0.032716498761068635      647.8697588246664
0.03299306118333142       646.6962448341678
0.03326895162351545       645.5032425420222
0.03354443814161999       644.2907519482292
0.03381978997732317       643.0587730527891
0.034095276765188226      641.8073058557021
0.03437116774410313       640.5363503569674
0.03464773097249833       639.2459065565859
0.034924294202460265      637.8564110668572
0.03520018518292322       636.4911505139524
0.03547567197232456       635.1501248978715
0.035751023809559274      633.8333342186145
0.036026510329197556      632.5407784761817
0.036302400770924524      631.2724576705724
0.03657896319474637       630.0283718017872
0.036838495506703706      628.846108726866
0.03709747122597688       627.7196667797606
0.037356112406552636      626.6490459604711
0.03761464196443644       625.6342462689978
0.03787328310424792       624.6752677053405
0.03813225874209787       623.7721102694989
0.03839179093218227       622.9247739614734
0.03863570546763781       622.1542292190945
0.038879157791710306      621.4495849135112
0.03912233240906017       620.810841044723
0.03936541445670531       620.2379976127305
0.039608589283092806      619.7310546175335
0.039852042024763494      619.2900120591315
0.04009595718542905       618.9148699375252
0.040307879631580334      618.6263240329044
0.04051949849477797       618.390049132582
0.0407309350144797        618.2060452365579
0.040942310743905544      618.0743123448322
0.04115374734111909       617.9948504574049
0.04136536635920676       617.9676595742758
0.04157728903736024       617.992739695445
0.04178920745215007       618.0773936117458
0.042000823426259694      618.2129109865351
0.042212258026551035      618.3992918198129
0.04242363263153709       618.6365361115791
0.0426350687230549        618.924643861834
0.042846687677050764      619.2636150705772
0.04305861055527523       619.653449737809
0.04330252486354604       620.1310881601557
0.043545975653630026      620.6780283828264
0.04378914799357473       621.2942704058206
0.044032227587420474      621.9798142291386
0.04427540035169028       622.7346598527807
0.04451885198945311       623.558807276746
0.044762767566824783      624.4522565010353
0.045022299728516735      625.432194600876
0.04528127533816108       626.4613297776668
0.045539916449880535      627.5396620314082
0.045798445979712124      628.6671913621001
0.046057087132201545      629.8439177697425
0.04631606282328052       631.069841254335
0.046575595106862454      632.344961815878
0.04685215752913061       633.693195758604
0.04712804796931999       635.0684188301191
0.04740353448742985       636.470631030423
0.04767888632313835       637.899832359516
0.04795437311100872       639.3560228173982
0.048230264089928976      640.839202404069
0.048506827318329566      642.3493711195291
0.04878339054829114       643.7691652321545
0.049059281528753745      645.1709308948443
0.04933476831815475       646.5546681075987
0.0496101201553891        647.9203768704175
0.04988560667502701       649.2680571833012
0.05016149711675364       650.597709046249
0.050438059540575134      651.9093324592615
0.05069759185254397       652.9451002076366
0.05095656757182859       653.9352891504323
0.05121520875241573       654.8798992876478
0.05147373831031092       655.7789306192842
0.051732379450133786      656.632383145341
0.05199135508799517       657.440256865818
0.05225088727809108       658.2025517807155
0.0524948018135407        658.7876043481199
0.052738254137607306      659.3126388852771
0.05298142875495131       659.7776553921874
0.05322451080259058       660.1826538688505
0.0534676856289722        660.5276343152668
0.05371113837063701       660.8125967314356
0.05395505353129665       661.0375411173576
0.05416697597743634       661.1614018706925
0.054378594840622414      661.244513071652
0.05459003136031263       661.2868747202365
0.05480140708972696       661.2884868164456
0.05501284368692898       661.2493493602799
0.0552244627050051        661.1694623517385
0.05543638538314697       661.0488257908221
