% Model:              brazing.mph
% Version:            COMSOL 5.3.0.223
% Date:               Oct 24 2018, 04:33
% Dimension:          1
% Nodes:              225
% Expressions:        1
% Description:        Line graph
% x                       Height
0                         681.5435638747575
2.1191841480136804E-4     681.4474037728568
4.2353438892247565E-4     681.3106806619733
6.349689892252786E-4      681.1333945421069
8.463435942227858E-4      680.9155454132577
0.001057779685752053      680.6571332754261
0.001269398639759412      680.3581581286113
0.001481321517995422      680.018619972814
0.0017252358262731596     679.5667770066298
0.0019686866163640313     679.0815347127833
0.0022118589563155885     678.5628930912749
0.002454938550168189      678.0108521421045
0.0026981113144448556     677.4254118652725
0.0029415629522145732     676.8065722607781
0.0031854785295931678     676.154333328622
0.0034450106912723537     675.3592353960909
0.0037039863009040125     674.5304888438698
0.003962627412610827      673.6680936719584
0.0042211569424298        672.7720498803573
0.004479798094906585      671.8423574690662
0.004738773785972872      670.8790164380848
0.004998306069542035      669.8820267874137
0.005274868491808245      668.724059973894
0.005550758931995686      667.5474946143373
0.0058262454501036105     666.352330708743
0.006101597285810183      665.1385682571114
0.006377084073678616      663.9062072594428
0.006652975052596927      662.6552477157366
0.006929538280995558      661.3856896259932
0.007206101510950518      660.0747026047576
0.007481992491406557      658.7804083200231
0.007757479280801014      657.5028067717893
0.00803283111802884       656.2418979600568
0.008308317637660222      654.9976818848255
0.008584208079380276      653.770158546095
0.008860770503195153      652.5593279438657
0.009120302815147717      651.4253671109933
0.00937927853441616       650.3331663246967
0.009637919714987194      649.2827255849758
0.009896449272866283      648.2740448918307
0.010155090412673047      647.3071242452619
0.010414066050518256      646.3819636452682
0.01067359824059789       645.4985630918508
0.010917512776055054      644.6944914395241
0.011160965100129169      643.9430017367531
0.011404139717480647      643.244093983538
0.01164722176512739       642.5977681798788
0.011890396591516505      642.0040243257755
0.012133849333188814      641.4628624212278
0.012377764493855997      640.974282466236
0.01258968694000722       640.5928442938913
0.012801305803204788      640.253663257187
0.013012742322906452      639.9567393561232
0.013224118052332232      639.7020725906998
0.01343555464954572       639.4896629609171
0.013647173667633327      639.3195104667747
0.013859096345786744      639.1916151082728
0.014071014760598048      639.1216573610856
0.014282630734729056      639.0931710943723
0.01449406533504172       639.1061563081323
0.014705439940049088      639.1606130023661
0.014916876031588231      639.2565411770738
0.015128494985605482      639.3939408322549
0.015340417863851432      639.5728119679097
0.01558433217214941       639.7981501065034
0.015827782962260412      640.0839782085937
0.016070955302232025      640.4302962741806
0.016314034896104664      640.8371043032641
0.0165572076604014        641.3044022958446
0.01680065929819124       641.8321902519215
0.01704457487559009       642.4204681714953
0.01730410703726679       643.0654185764528
0.017563082646895985      643.7521578851355
0.01782172375860034       644.4806860975431
0.018080253288416847      645.2510032136757
0.01833889444089119       646.0631092335339
0.018597870131955005      646.9170041571167
0.018857402415521692      647.8126879844249
0.019133964837753384      648.7784203802646
0.019409855277906563      649.7633703180898
0.019685341795980367      650.7675377978998
0.019960693631652874      651.7909228196952
0.0202361804194872        652.8335253834761
0.020512071398371242      653.8953454892417
0.020788634626735362      654.9763831369928
0.02106519785666259       656.0349451628449
0.021341088837091095      657.0816639492787
0.021616575626458134      658.1165394962937
0.02189192746365859       659.1395718038906
0.022167413983262562      660.1507608720691
0.02244330442495508       661.1501067008289
0.022719866848742224      662.1376092901705
0.022979399160698737      662.9742751030253
0.023238374879971102      663.7882215920719
0.023497016060546046      664.5794487573098
0.023755545618429033      665.3479565987395
0.02401418675823971       666.0937451163612
0.024273162396088833      666.8168143101743
0.024532694586172417      667.5171641801793
0.02477660912165014       668.1040437855229
0.02502006144574469       668.6578228187002
0.025263236063116538      669.1785012797112
0.025506318110783622      669.6660791685562
0.025749492937193107      670.120556485235
0.02599294567888585       670.5419332297473
0.026236860839573585      670.9302094020936
0.026448783285734738      671.2151391140444
0.02666040214894219       671.4802328049632
0.026871838668653707      671.7254904748494
0.027083214398089334      671.9509121237036
0.027294650995312687      672.1564977515256
0.027506270013410168      672.3422473583153
0.02771819269157351       672.5081609440729
0.02793011110637494       672.5901910089924
0.028141727080496122      672.6506730029982
0.028353161680798985      672.6896069260906
0.028564536285796558      672.7069927782695
0.028775972377325904      672.7028305595351
0.028987591331333325      672.6771202698868
0.029199514209569403      672.6298619093252
0.02944342851784522       672.4449645887446
0.02968687930793418       672.2178903643023
0.02993005164788383       671.9486392359986
0.030173131241734534      671.6372112038334
0.0304163040060093        671.283606267807
0.0306597556437771        670.8878244279189
0.030903671221153783      670.4498656841694
0.031163203382828072      669.8291568544054
0.03142217899245488       669.1633090723321
0.03168082010415685       668.4523223379495
0.03193934963397098       667.6961966512577
0.032197990786442934      666.8949320122567
0.03245696647750436       666.0485284209464
0.032716498761068635      665.156985877327
0.03299306118333142       664.0370121964675
0.03326895162351545       662.8962518623155
0.03354443814161999       661.734704874871
0.03381978997732317       660.5523712341342
0.034095276765188226      659.3492509401051
0.03437116774410313       658.1253439927833
0.03464773097249833       656.8806503921693
0.034924294202460265      655.5681404378671
0.03520018518292322       654.2756432719535
0.03547567197232456       653.0031588944285
0.035751023809559274      651.7506873052919
0.036026510329197556      650.5182285045444
0.036302400770924524      649.3057824921851
0.03657896319474637       648.1133492682147
0.036838495506703706      646.9957142157866
0.03709747122597688       645.9312103339482
0.037356112406552636      644.9198376226997
0.03761464196443644       643.961596082041
0.03787328310424792       643.0564857119725
0.03813225874209787       642.2045065124934
0.03839179093218227       641.4056584836044
0.03863570546763781       640.6855071467735
0.038879157791710306      640.0306125485566
0.03912233240906017       639.4409746889537
0.03936541445670531       638.9165935679646
0.039608589283092806      638.4574691855897
0.039852042024763494      638.0636015418285
0.04009595718542905       637.7349906366813
0.040307879631580334      637.4853876814384
0.04051949849477797       637.2880974819074
0.0407309350144797        637.1431200380883
0.040942310743905544      637.0504553499813
0.04115374734111909       637.0101034175867
0.04136536635920676       637.0220642409038
0.04157728903736024       637.0863378199331
0.04178920745215007       637.2086002339357
0.042000823426259694      637.3815299027707
0.042212258026551035      637.6051268264379
0.04242363263153709       637.8793910049375
0.0426350687230549        638.2043224382695
0.042846687677050764      638.5799211264336
0.04305861055527523       639.0061870694302
0.04330252486354604       639.5248996286089
0.043545975653630026      640.1119082703783
0.04378914799357473       640.7672129947382
0.044032227587420474      641.490813801689
0.04427540035169028       642.2827106912308
0.04451885198945311       643.1429036633629
0.044762767566824783      644.0713927180859
0.045022299728516735      645.0906665861482
0.04528127533816108       646.1567663846866
0.045539916449880535      647.2696921137006
0.045798445979712124      648.4294437731903
0.046057087132201545      649.6360213631561
0.04631606282328052       650.8894248835975
0.046575595106862454      652.1896543345148
0.04685215752913061       653.5760648256496
0.04712804796931999       654.9847013505341
0.04740353448742985       656.4155639091681
0.04767888632313835       657.8686525015519
0.04795437311100872       659.3439671276856
0.048230264089928976      660.8415077875686
0.048506827318329566      662.3612744812016
0.04878339054829114       663.8030613058131
0.049059281528753745      665.2228678208339
0.04933476831815475       666.6206940262639
0.0496101201553891        667.9965399221035
0.04988560667502701       669.3504055083524
0.05016149711675364       670.6822907850105
0.050438059540575134      671.992195752078
0.05069759185254397       673.0550559979195
0.05095656757182859       674.0697315951837
0.05121520875241573       675.0362225438707
0.05147373831031092       675.9545288439807
0.051732379450133786      676.8246504955139
0.05199135508799517       677.6465874984694
0.05225088727809108       678.4203398528481
0.0524948018135407        679.0291239699611
0.052738254137607306      679.5779460433946
0.05298142875495131       680.0668060731485
0.05322451080259058       680.4957040592233
0.0534676856289722        680.8646400016188
0.05371113837063701       681.1736139003345
0.05395505353129665       681.4226257553712
0.05416697597743634       681.5712308728412
0.054378594840622414      681.6760599092208
0.05459003136031263       681.7371128645093
0.05480140708972696       681.7543897387073
0.05501284368692898       681.727890531815
0.0552244627050051        681.6576152438314
0.05543638538314697       681.5435638747575
