% Model:              brazing.mph
% Version:            COMSOL 5.3.0.223
% Date:               Oct 24 2018, 02:19
% Dimension:          1
% Nodes:              225
% Expressions:        1
% Description:        Line graph
% x                       Height
0                         694.4212631332169
2.02242572596226E-4       694.4128709832131
4.040113375593453E-4      694.3381952797735
6.054635867748898E-4      694.1972360228982
8.067573541103817E-4      693.9899932125871
0.0010080510467017985     693.7164668488404
0.001209503071861434      693.3766569316577
0.0014112714639836859     692.9705634610395
0.001613513515825394      692.4981864369856
0.001815803045808458      692.0868423203999
0.0020176184164428694     691.6267276580836
0.0022191170764546647     691.1178424500367
0.0024204572175778446     690.5601866962594
0.00262179740518867       689.9537603967516
0.002823296204553664      689.298563551513
0.0030251118070788686     688.594596160544
0.003227401660948015      687.8418582238444
0.0034297372965816655     687.114318678388
0.003631598594156443      686.3475199517276
0.0038331430353414214     685.5414620438632
0.004034528845142556      684.6961449547946
0.004235914622467191      683.811568684522
0.004437458966299354      682.8877332330452
0.004639320101874085      681.9246386003642
0.004841655511239337      680.9222847864793
0.005043918276497792      680.0196144910994
0.005245706959792293      679.1030710900635
0.0054471789681153834     678.1726545833716
0.00564849245128538       677.2283649710234
0.005849805932728159      676.2702022530192
0.006051277935873691      675.2981664293591
0.00625306661055245       674.3122575000428
0.006455329363777148      673.3124754650704
0.0066576887471433525     672.3442010010363
0.0068595736811967985     671.39425787371
0.007061141707903535      670.4626460830917
0.007262551112883539      669.5493656291812
0.007463960555734714      668.6544165119789
0.007665528695965537      667.777798731484
0.00786741381892875       666.9195122876976
0.0080697734661485        666.0795571806187
0.008272395437950266      665.3280420283915
0.008474540847339949      664.5978368175186
0.008676367906616744      663.8889415480002
0.008878035577337231      663.2013562198363
0.009079703197965442      662.5350808330269
0.009281530107084053      661.8901153875717
0.00948367526660416       661.2664598834713
0.009686296889411194      660.664114320725
0.009888748367913874      660.2874204516949
0.010090724718905934      659.9480941091882
0.010292383720552634      659.6461352932055
0.010493883896490891      659.3815440037463
0.010695384145210549      659.1543202408109
0.010897043365029401      658.964464004399
0.011099020079070253      658.811975294511
0.011301472064648224      658.6968541111465
0.011503924099142101      658.692243531793
0.011705900863193036      658.7264194108642
0.011907560133099505      658.7993817483602
0.012109060430962503      658.911130544281
0.012310560654077738      659.0616657986266
0.012512219699917606      659.2509875113968
0.012714196091111104      659.4790956825918
0.012916647604829811      659.7459903122117
0.013119269382981878      660.17694007767
0.013321414683399362      660.6389112737153
0.013523241722808088      661.1319039003478
0.013724909467002238      661.6559179575672
0.013926577258472442      662.2109534453737
0.014128404439597363      662.7970103637674
0.014330549975836581      663.414088712748
0.01453317208336263       664.0621884923156
0.014735531766219815      664.7855831704912
0.014937416940401616      665.5205591242557
0.015138985143475461      666.2671163536088
0.015340394656791169      667.0252548585506
0.015541804135826716      667.7949746390813
0.015743372236141022      668.5762756952006
0.015945257239325793      669.3691580269088
0.01614761668334845       670.1736216342057
0.01634987940592303       671.1101670048978
0.016551668047823844      672.0326684904762
0.016753140015983766      672.9411260909409
0.0169544534601584        673.8355398062919
0.017155766903708087      674.715909636529
0.017357238869994664      675.5822355816526
0.017559027508778132      676.4345176416623
0.01776129022699866       677.2727558165583
0.017963625484858744      678.140732005452
0.018165486461237414      678.9836859947447
0.018367030641941378      679.8016177844366
0.018568416255992027      680.5945273745275
0.018769801906169285      681.3624147650174
0.018971346195167795      682.1052799559064
0.019173207351754082      682.8231229471945
0.019375542861313405      683.5159437388818
0.019577832661189145      684.2370705766042
0.019779648217873542      684.9032419243233
0.019981146975907166      685.5144577820391
0.020182487123025287      686.0707181497517
0.020383827220813066      686.5720230274608
0.020585325830972126      687.0183724151666
0.020787141141585735      687.4097663128691
0.020989430597769934      687.7462047205685
0.021191672662378012      688.2118927612534
0.021393441061935803      688.611488655336
0.02159489309031221       688.9449924028161
0.021796186783028852      689.2124040036938
0.021997480548535182      689.413723457969
0.022198932795108938      689.5489507656421
0.022400701557758636      689.6180859267125
0.02260294412950465       689.6211289411806
0.02280539620920995       689.6783521856141
0.023007373018156245      689.667203977613
0.02320903233274668       689.587684317177
0.023410532675187733      689.4397932043066
0.023612032942881025      689.2235306390014
0.023813692033404853      688.9388966212616
0.024015668469493705      688.5858911510873
0.024218120028423832      688.1645142284781
0.024420742013481003      687.779806992777
0.02462288751935683       687.3396054013571
0.02482471476325633       686.8439094542181
0.02502638271145666       686.2927191513601
0.025228050706933344      685.6860344927833
0.025429878092549915      685.0238554784873
0.025632023834248962      684.3061821084726
0.025834646148682177      683.5330143827388
0.026037006051731277      682.7612773921167
0.026238891444565628      681.947573806763
0.02644045986526205       681.0919036266775
0.026641869595683754      680.1942668518608
0.02684327929182417       679.2546634823124
0.027044847609757647      678.2730935180322
0.02724673283158932       677.2495569590207
0.027449092495796006      676.1840538052776
0.02765135518998453       675.1610451918096
0.027853143803698084      674.1282779383288
0.028054615743803996      673.0857520448353
0.028255929159991804      672.0334675113288
0.028457242575555555      670.9714243378095
0.028658714513790734      669.8996225242773
0.028860503124391312      668.8180620707325
0.029062765814231884      667.7267429771747
0.029265100752448706      666.6416082506996
0.02946696141141544       665.5823661071562
0.029668505276199596      664.5490165465446
0.029869890575077548      663.5415595688647
0.03007127591008127       662.5599951741165
0.030272819883157453      661.6043233623001
0.03047468072232762       660.6745441334152
0.030677015912237836      659.7706574874621
0.030879305594778746      658.9504729038274
0.03108112103494649       658.1664230334518
0.031282619677010744      657.4185078763354
0.03148395970843373       656.706727432478
0.0316852996905265        656.0310817018799
0.031886798184716555      655.3915706845411
0.032088613378814135      654.7881943804613
0.03229090271766436       654.2209527896407
0.03249314477533616       653.8582357190809
0.03269491316800606       653.5493673069221
0.03289636518952694       653.2943475531641
0.03309765887540427       653.0931764578071
0.033298952634071295      652.945854020851
0.033500404873789524      652.8523802422957
0.03370217362955133       652.8127551221415
0.03390441619436107       652.826978660388
0.03410686840969767       652.9529652468462
0.03430884535332711       653.1332053116391
0.0345105048019665        653.3676988547668
0.034712005278138794      653.6564458762292
0.03491350567956333       653.9994463760264
0.03511516490413611       654.3967003541583
0.035317141474908095      654.8482078106251
0.03551959316946952       655.3539687454265
0.035722216260139425      656.0157227174949
0.03592436286389621       656.7187965293023
0.036126191200505704      657.4631901808489
0.03632786023882611       658.2489036721346
0.03652952932442421       659.0759370031594
0.036731357802754806      659.9442901739234
0.03693350464234149       660.8539631844266
0.03713612806239678       661.8049560346687
0.03733848789969145       662.8233241410843
0.037540373227224554      663.8610678849892
0.03774194158292153       664.9181872663835
0.03794335124849304       665.9946822852672
0.03814476087977932       667.0905529416403
0.03834632913270157       668.2057992355028
0.03854821428921239       669.3404211668545
0.038750573887637245      670.4944187356958
0.03895283596123875       671.726874348925
0.039154623958694366      672.9442974109977
0.039356095285438375      674.1466879219137
0.03955740808971597       675.3340458816732
0.03975872089337115       676.5063712902761
0.03996019221824938       677.6636641477224
0.04016198021260023       678.8059244540123
0.04036424228186526       679.9331522091456
0.040566577948397485      681.0466058819854
0.040768439330593605      682.1238766469098
0.04096998391520435       683.1649645039187
0.04117136993220262       684.1698694530119
0.04137275598532357       685.1385914941898
0.04157430067821714       686.071130627452
0.04177616224060133       686.9674868527989
0.0419784981588055        687.8276601702299
0.04218078754816035       688.6779802400611
0.04238260269718259       689.4617536171118
0.04258410104946696       690.1789803013822
0.04278544079179545       690.8296602928722
0.04298678048479618       691.4137935915818
0.043188278689213704      691.9313801975111
0.043390093592177985      692.3824201106601
0.04359238263785921       692.7669133310287
0.043794623705544454      693.2263495345659
0.04399639111513442       693.6136021728848
0.04419784215819482       693.9286712459855
0.04439913486792596       694.1715567538681
0.044600427650446826      694.3422586965326
0.04480187891170468       694.4407770739788
0.045003646684386715      694.467111886207
0.04520588825921017       694.4212631332169
