% Model:              brazing.mph
% Version:            COMSOL 5.3.0.223
% Date:               Oct 24 2018, 06:03
% Dimension:          1
% Nodes:              161
% Expressions:        1
% Description:        Line graph
% x                       Height
0                         993.8029454944025
1.9693985890610136E-4     993.7077050013833
3.9298030043864816E-4     993.6357420146056
5.884188308682271E-4      993.5870565340687
7.835557095112735E-4      993.5616485597728
9.786925881542028E-4      993.5595180917179
0.0011741311185834375     993.5806651299043
0.0013701715601154056     993.6250896743314
0.0015671114190207022     993.6927917249999
0.0017642608961497635     993.4607919449651
0.0019605081241513326     993.2234803180801
0.0021561515411346144     992.980856844344
0.002351492352702621      992.7329215237575
0.0025468331642698894     992.4796743563201
0.0027424765812509564     992.2211153420322
0.0029387238092488436     991.9572444808938
0.0031358732863727766     991.6880617729045
0.0033326885608882563     991.3559571672148
0.0035286060983021257     991.0235335354929
0.0037239228519497995     990.6907908777386
0.003918938519653848      990.3577291939522
0.004113954187357973      990.0243484841334
0.004309270941005876      989.6906487482828
0.004505188478420127      989.3566299863998
0.004702003752936137      989.0222921984845
0.004899138702461749      988.7124728354235
0.005095371599302965      988.4130569532084
0.005291000816927052      988.1240445518398
0.005486327495291825      987.8454356313172
0.005681654173656831      987.577230191641
0.0058772833912816074     987.3194282328108
0.0060735162881239745     987.0720297548268
0.006270651237651189      986.8350347576892
0.006467582778148322      986.6886174300965
0.006663615013526554      986.5707028479923
0.006859045413116663      986.4812910113768
0.0070541741987231454     986.4203819202495
0.007249302984329781      986.3879755746106
0.007444733383920351      986.3840719744602
0.007640765619299351      986.4086711197982
0.007837697159797551      986.4617730106246
0.008034634474091872      986.4283225730825
0.008230672405352359      986.4294742000467
0.008426108448549354      986.465227891517
0.008621242851524007      986.5355836474938
0.008816377254498534      986.640541467977
0.009011813297695145      986.7801013529662
0.009207851228955002      986.954263302462
0.00940478854324844       987.1630273164639
0.00960192671152544       987.4698452858896
0.00979816278359587       987.7856463448405
0.009993795147248338      988.1104304933161
0.010189124956984269      988.4441977313166
0.010384454766719743      988.7869480588421
0.010580087130370853      989.1386814758927
0.010776323202439026      989.4993979824679
0.01097346137071288       989.8690975785681
0.011170281912174305      990.2203240828284
0.011366204645540166      990.5788191331361
0.011561526547508357      990.9445827294913
0.011756547339625332      991.3176148718941
0.011951568131742307      991.6979155603441
0.0121468900337105        992.0854847948416
0.012342812767076368      992.4803225753866
0.0125396333085378        992.8824289019789
0.012736771215691979      993.1642214060533
0.012933007030171178      993.4419544286753
0.013128639138602195      993.7156279698446
0.013323968694306592      993.9852420295614
0.013519298250011432      994.2507966078257
0.013714930358443784      994.5122917046373
0.0139111661729252        994.7697273199964
0.014108304080082462      995.0231034539028
0.014305241249097643      995.0037253966572
0.014501279037039759      994.996813196697
0.014696714938233999      995.0023668540222
0.014891849199866372      995.020386368633
0.015086983461498874      995.0508717405293
0.015282419362693495      995.0938229697111
0.01547845715063625       995.1492400561784
0.015675394319652317      995.2171229999313
0.015872325504405583      994.8214327564646
0.01606835738884011       994.4429320061291
0.016263787440706973      994.081620748926
0.016458915880206496      993.7374989848541
0.016654044319705866      993.4105667139141
0.016849474371572262      993.1008239361059
0.017045506256006017      992.8082706514296
0.017242437440758204      992.532906859885
0.01743957168037589       992.0200195025628
0.017635803876907424      991.4985802522534
0.01783143240066149       990.9685891089567
0.018026758388388308      990.4300460726726
0.01822208437611492       989.8829511434011
0.01841771289986836       989.3273043211426
0.018613945096398854      988.7631056058966
0.018811079336015085      988.1903549976633
0.019007894687321662      987.6185692157793
0.01920381230049143       987.0443432551816
0.019399129129200405      986.4676771158703
0.01959414487161704       985.8885707978455
0.01978916061403359       985.3070243011074
0.01998447744274231       984.7230376256554
0.020180395055911654      984.1366107714899
0.020377210407217645      983.5477437386108
0.020574360469106157      983.0587571978987
0.020770608273960874      982.5826162871875
0.020966252262493188      982.1193210064765
0.021161593642948652      981.6688713557666
0.021356935023404883      981.2312673350572
0.021552579011939476      980.8065089443484
0.021748826816797996      980.3945961836401
0.021945976878691802      979.9955290529327
0.022142917141692885      979.7362626094613
0.022338957981867254      979.5128474525319
0.022534396907280062      979.3252835821442
0.02272953417907009       979.1735709982985
0.02292467145086023       979.0577097009947
0.02312011037627338       978.977699690233
0.02331615121644832       978.9335409660129
0.023513091479450195      978.9252335283348
0.023710025135207962      978.8492485877554
0.02390605945730262       978.8159797319848
0.024101491924457957      978.825426961023
0.024296622768016963      978.8775902748697
0.024491753611575823      978.9724696735251
0.02468718607873073       979.1100651569892
0.024883220400824673      979.290376725262
0.025080154056581445      979.5134043783436
0.025277299572591536      979.8837167553658
0.025473542893039384      980.2664719405772
0.02566918243840792       980.6616699339776
0.025864519396400307      981.0693107355675
0.026059856354392216      981.4893943453463
0.026255495899759323      981.9219207633147
0.026451739220204794      982.3668899894718
0.026648884736211575      982.8243020238184
0.02684569473774919       983.354815145976
0.027041607073256636      983.8872347822561
0.027236918672681274      984.421560932658
0.027431929210095855      984.9577935971819
0.027626939747510428      985.495932775828
0.027822251346935042      986.035978468596
0.028018163682442445      986.5779306754861
0.028214973683980002      987.1217893964982
0.028412120943583204      987.6707458751567
0.028608365984047285      988.206651534114
0.02880400723361381       988.7295063733703
0.02899934588786498       989.2393103929254
0.02919468454211669       989.7360635927795
0.029390325791684838      990.2197659729324
0.02958657083215161       990.690417533384
0.029783718091758563      991.1480182741346
0.029980652759780888      991.447777783207
0.030176688080480362      991.7567105475542
0.030372121537075924      992.0748165671758
0.03056725336547531       992.4020958420721
0.030762385193874833      992.7385483722429
0.030957818650470807      993.0841741576882
0.031153853971170976      993.438973198408
0.031350788639194264      993.8029454944025
