% Model:              brazing.mph
% Version:            COMSOL 5.3.0.223
% Date:               Oct 24 2018, 05:37
% Dimension:          1
% Nodes:              225
% Expressions:        1
% Description:        Line graph
% x                       Height
0                         681.8694045277472
2.02242572596226E-4       681.8587462877613
4.040113375593453E-4      681.7853741731741
6.054635867748898E-4      681.6492881839858
8.067573541103817E-4      681.4504883201963
0.0010080510467017985     681.1889745818055
0.001209503071861434      680.8647469688134
0.0014112714639836859     680.4778054812202
0.001613513515825394      680.0281501190258
0.001815803045808458      679.6256950331641
0.0020176184164428694     679.1770374267857
0.0022191170764546647     678.6821772998903
0.0024204572175778446     678.1411146524783
0.00262179740518867       677.5538494845496
0.002823296204553664      676.9203817961042
0.0030251118070788686     676.240711587142
0.003227401660948015      675.5148388576629
0.0034297372965816655     674.8100520028737
0.003631598594156443      674.0686258581119
0.0038331430353414214     673.2905604233775
0.004034528845142556      672.4758556986707
0.004235914622467191      671.6245116839913
0.004437458966299354      670.7365283793391
0.004639320101874085      669.8119057847147
0.004841655511239337      668.8506439001177
0.005043918276497792      667.97281315678
0.005245706959792293      667.0829501668949
0.0054471789681153834     666.1810549304622
0.00564849245128538       665.267127447482
0.005849805932728159      664.3411677179544
0.006051277935873691      663.4031757418792
0.00625306661055245       662.4531515192565
0.006455329363777148      661.4910950500862
0.0066576887471433525     660.5586893574243
0.0068595736811967985     659.6445451604105
0.007061141707903535      658.748662459045
0.007262551112883539      657.8710412533277
0.007463960555734714      657.0116815432584
0.007665528695965537      656.1705833288377
0.00786741381892875       655.3477466100647
0.0080697734661485        654.5431713869401
0.008272395437950266      653.8189296903032
0.008474540847339949      653.1173022872438
0.008676367906616744      652.4382891777619
0.008878035577337231      651.7818903618576
0.009079703197965442      651.1481058395307
0.009281530107084053      650.5369356107816
0.00948367526660416       649.9483796756097
0.009686296889411194      649.3824380340154
0.009888748367913874      649.0201026665266
0.010090724718905934      648.695527960667
0.010292383720552634      648.408713916437
0.010493883896490891      648.1596605338362
0.010695384145210549      647.9483678128648
0.010897043365029401      647.774835753523
0.011099020079070253      647.6390643558103
0.011301472064648224      647.5410536197271
0.011503924099142101      647.5452201857502
0.011705900863193036      647.5883069200689
0.011907560133099505      647.6703138226834
0.012109060430962503      647.7912408935937
0.012310560654077738      647.9510881327998
0.012512219699917606      648.1498555403016
0.012714196091111104      648.3875431160991
0.012916647604829811      648.6641508601924
0.013119269382981878      649.090085118286
0.013321414683399362      649.5470300393257
0.013523241722808088      650.0349856233117
0.013724909467002238      650.5539518702438
0.013926577258472442      651.1039287801221
0.014128404439597363      651.6849163529466
0.014330549975836581      652.2969145887173
0.01453317208336263       652.9399234874342
0.014735531766219815      653.651914352588
0.014937416940401616      654.3762917458622
0.015138985143475461      655.1130556672566
0.015340394656791169      655.8622061167714
0.015541804135826716      656.6237430944064
0.015743372236141022      657.3976666001619
0.015945257239325793      658.1839766340374
0.01614761668334845       658.9826731960335
0.01634987940592303       659.896396245804
0.016551668047823844      660.7973873196014
0.016753140015983766      661.6856464174257
0.0169544534601584        662.561173539277
0.017155766903708087      663.4239686851552
0.017357238869994664      664.2740318550605
0.017559027508778132      665.1113630489923
0.01776129022699866       665.9359622669515
0.017963625484858744      666.7878851875683
0.018165486461237414      667.6154114813214
0.018367030641941378      668.4185411482108
0.018568416255992027      669.1972741882362
0.018769801906169285      669.9516106013978
0.018971346195167795      670.6815503876956
0.019173207351754082      671.3870935471296
0.019375542861313405      672.0682400796995
0.019577832661189145      672.7699646847807
0.019779648217873542      673.4200596835378
0.019981146975907166      674.018525075971
0.020182487123025287      674.5653608620802
0.020383827220813066      675.0605670418654
0.020585325830972126      675.5041436153266
0.020787141141585735      675.8960905824638
0.020989430597769934      676.2364079432771
0.021191672662378012      676.6809874807637
0.021393441061935803      677.0626854765263
0.02159489309031221       677.381501930565
0.021796186783028852      677.6374368428797
0.021997480548535182      677.8304902134702
0.022198932795108938      677.9606620423368
0.022400701557758636      678.0279523294793
0.02260294412950465       678.0323610748978
0.02280539620920995       678.0828885485718
0.023007373018156245      678.0682389992476
0.02320903233274668       677.9884124269249
0.023410532675187733      677.843408831604
0.023612032942881025      677.633228213285
0.023813692033404853      677.3578705719675
0.024015668469493705      677.0173359076517
0.024218120028423832      676.6116242203378
0.024420742013481003      676.2281352742494
0.02462288751935683       675.791393833323
0.02482471476325633       675.3013998975586
0.02502638271145666       674.758153466956
0.025228050706933344      674.1616545415152
0.025429878092549915      673.5119031212366
0.025632023834248962      672.8088992061198
0.025834646148682177      672.0526427961651
0.026037006051731277      671.2936401127876
0.026238891444565628      670.4946796930363
0.02644045986526205       669.6557615369117
0.026641869595683754      668.7768856444133
0.02684327929182417       667.8580520155413
0.027044847609757647      666.8992606502958
0.02724673283158932       665.9005115486764
0.027449092495796006      664.8618047106835
0.02765135518998453       663.8525809848153
0.027853143803698084      662.8346291036288
0.028054615743803996      661.8079490671241
0.028255929159991804      660.772540875301
0.028457242575555555      659.7284045281598
0.028658714513790734      658.6755400257002
0.028860503124391312      657.6139473679223
0.029062765814231884      656.5436265548261
0.029265100752448706      655.479382854667
0.02946696141141544       654.4403184007139
0.029668505276199596      653.4264331929666
0.029869890575077548      652.4377272314251
0.03007127591008127       651.4742005160896
0.030272819883157453      650.5358530469597
0.03047468072232762       649.622684824036
0.030677015912237836      648.734695847318
0.030879305594778746      647.9229972698657
0.03108112103494649       647.1477849704441
0.031282619677010744      646.4090589490532
0.03148395970843373       645.706819205693
0.0316852996905265        645.0410657403636
0.031886798184716555      644.4117985530647
0.032088613378814135      643.8190176437965
0.03229090271766436       643.262723012559
0.03249314477533616       642.8922095052562
0.03269491316800606       642.5751809152603
0.03289636518952694       642.3116372425711
0.03309765887540427       642.1015784871887
0.033298952634071295      641.945004649113
0.033500404873789524      641.8419157283445
0.03370217362955133       641.7923117248823
0.03390441619436107       641.7961926387271
0.03410686840969767       641.9042733721556
0.03430884535332711       642.0661723082088
0.0345105048019665        642.2818894468872
0.034712005278138794      642.5514247881905
0.03491350567956333       642.8747783321188
0.03511516490413611       643.2519500786719
0.035317141474908095      643.6829400278501
0.03551959316946952       644.1677481796532
0.035722216260139425      644.7961727940417
0.03592436286389621       645.4657317871337
0.036126191200505704      646.1764251589293
0.03632786023882611       646.9282529094282
0.03652952932442421       647.7212150386308
0.036731357802754806      648.5553115465368
0.03693350464234149       649.4305424331463
0.03713612806239678       650.3469076984594
0.03733848789969145       651.3253209702794
0.037540373227224554      652.323618707247
0.03774194158292153       653.3418009093618
0.03794335124849304       654.3798675766242
0.03814476087977932       655.4378187090339
0.03834632913270157       656.515654306591
0.03854821428921239       657.6133743692956
0.038750573887637245      658.7309788971476
0.03895283596123875       659.9163248999553
0.039154623958694366      661.0881488252672
0.039356095285438375      662.2464506730835
0.03955740808971597       663.3912304434041
0.03975872089337115       664.522488136229
0.03996019221824938       665.6402237515581
0.04016198021260023       666.7444372893917
0.04036424228186526       667.8351287497295
0.040566577948397485      668.9126569216171
0.040768439330593605      669.9554721483663
0.04096998391520435       670.9635744299774
0.04117136993220262       671.93696376645
0.04137275598532357       672.8756401577845
0.04157430067821714       673.7796036039805
0.04177616224060133       674.6488541050384
0.0419784981588055        675.483391660958
0.04218078754816035       676.3027250633497
0.04238260269718259       677.0595970739097
0.04258410104946696       677.7540076926379
0.04278544079179545       678.385956919534
0.04298678048479618       678.9554447545985
0.043188278689213704      679.462471197831
0.043390093592177985      679.9070362492317
0.04359238263785921       680.2891399088006
0.043794623705544454      680.7258556211548
0.04399639111513442       681.0942334377988
0.04419784215819482       681.3942733587324
0.04439913486792596       681.625975383956
0.044600427650446826      681.7893395134691
0.04480187891170468       681.8843657472721
0.045003646684386715      681.9110540853648
0.04520588825921017       681.8694045277472
