% Model:              brazing.mph
% Version:            COMSOL 5.3.0.223
% Date:               Oct 24 2018, 06:17
% Dimension:          1
% Nodes:              225
% Expressions:        1
% Description:        Line graph
% x                       Height
0                         729.7112282720732
2.1191841480136804E-4     729.5966837538614
4.2353438892247565E-4     729.4370966693505
6.349689892252786E-4      729.2324670185403
8.463435942227858E-4      728.9827948014312
0.001057779685752053      728.6880800180232
0.001269398639759412      728.3483226683157
0.001481321517995422      727.9635227523095
0.0017252358262731596     727.4554076952974
0.0019686866163640313     726.9086728241741
0.0022118589563155885     726.3233181389395
0.002454938550168189      725.6993436395936
0.0026981113144448556     725.0367493261368
0.0029415629522145732     724.3355351985682
0.0031854785295931678     723.5957012568886
0.0034450106912723537     722.7039459403492
0.0037039863009040125     721.7746756137958
0.003962627412610827      720.8078902772285
0.0042211569424298        719.8035899306474
0.004479798094906585      718.7617745740525
0.004738773785972872      717.6824442074434
0.004998306069542035      716.5655988308206
0.005274868491808245      715.2746718621565
0.005550758931995686      713.9631893692035
0.0058262454501036105     712.6311513519611
0.006101597285810183      711.2785578104298
0.006377084073678616      709.9054087446095
0.006652975052596927      708.5117041544996
0.006929538280995558      707.0974440401009
0.007206101510950518      705.6385704395684
0.007481992491406557      704.1971938162044
0.007757479280801014      702.7733141700083
0.00803283111802884       701.3669315009806
0.008308317637660222      699.9780458091215
0.008584208079380276      698.6066570944303
0.008860770503195153      697.2527653569075
0.009120302815147717      695.986813970339
0.00937927853441616       694.7661013505447
0.009637919714987194      693.5906274975252
0.009896449272866283      692.4603924112804
0.010155090412673047      691.3753960918104
0.010414066050518256      690.3356385391147
0.01067359824059789       689.3411197531939
0.010917512776055054      688.4376209050097
0.011160965100129169      687.5915064868213
0.011404139717480647      686.8027764986288
0.01164722176512739       686.0714309404322
0.011890396591516505      685.3974698122315
0.012133849333188814      684.7808931140263
0.012377764493855997      684.2217008458172
0.01258968694000722       683.7831786425962
0.012801305803204788      683.3913247841546
0.013012742322906452      683.0461392704918
0.013224118052332232      682.747622101608
0.01343555464954572       682.4957732775036
0.013647173667633327      682.290592798178
0.013859096345786744      682.1320806636314
0.014071014760598048      682.0350874231993
0.014282630734729056      681.9841855647123
0.01449406533504172       681.9793750881702
0.014705439940049088      682.0206559935733
0.014916876031588231      682.1080282809219
0.015128494985605482      682.241491950215
0.015340417863851432      682.4210470014536
0.01558433217214941       682.6546661568896
0.015827782962260412      682.9534026217602
0.016070955302232025      683.3172563960657
0.016314034896104664      683.7462274798061
0.0165572076604014        684.2403158729817
0.01680065929819124       684.7995215755916
0.01704457487559009       685.4238445876366
0.01730410703726679       686.1134260787854
0.017563082646895985      686.8494420989413
0.01782172375860034       687.6318926481041
0.018080253288416847      688.4607777262739
0.01833889444089119       689.3360973334508
0.018597870131955005      690.2578514696344
0.018857402415521692      691.2260401348252
0.019133964837753384      692.2706546743126
0.019409855277906563      693.3372144725756
0.019685341795980367      694.4257195296134
0.019960693631652874      695.5361698454266
0.0202361804194872        696.6685654200153
0.020512071398371242      697.8229062533787
0.020788634626735362      698.9991923455177
0.02106519785666259       700.1467300194626
0.021341088837091095      701.2825483682764
0.021616575626458134      702.4066473919594
0.02189192746365859       703.5190270905116
0.022167413983262562      704.6196874639334
0.02244330442495508       705.7086285122236
0.022719866848742224      706.7858502353834
0.022979399160698737      707.7032213752652
0.023238374879971102      708.5964851046216
0.023497016060546046      709.4656414234523
0.023755545618429033      710.3106903317575
0.02401418675823971       711.1316318295372
0.024273162396088833      711.9284659167912
0.024532694586172417      712.7011925935197
0.02477660912165014       713.3506058588742
0.02502006144574469       713.9647322861333
0.025263236063116538      714.543571875297
0.025506318110783622      715.087124626365
0.025749492937193107      715.5953905393383
0.02599294567888585       716.0683696142156
0.026236860839573585      716.5060618509978
0.026448783285734738      716.8308307255502
0.02666040214894219       717.1325153994778
0.026871838668653707      717.4111158727803
0.027083214398089334      717.6666321454583
0.027294650995312687      717.8990642175118
0.027506270013410168      718.1084120889399
0.02771819269157351       718.2946757597435
0.02793011110637494       718.395822111336
0.028141727080496122      718.4715175391071
0.028353161680798985      718.5217620430568
0.028564536285796558      718.5465556231851
0.028775972377325904      718.5458982794926
0.028987591331333325      718.5197900119782
0.029199514209569403      718.4682308206427
0.02944342851784522       718.2727747199568
0.02968687930793418       718.0304803521094
0.02993005164788383       717.7413477171007
0.030173131241734534      717.4053768149303
0.0304163040060093        717.0225676455987
0.0306597556437771        716.5929202091053
0.030903671221153783      716.1164345054506
0.031163203382828072      715.4487903980803
0.03142217899245488       714.7321086754187
0.03168082010415685       713.966389337466
0.03193934963397098       713.1516323842222
0.032197990786442934      712.2878378156876
0.03245696647750436       711.3750056318615
0.032716498761068635      710.4131358327445
0.03299306118333142       709.2092345738018
0.03326895162351545       707.9831412846762
0.03354443814161999       706.7348559653677
0.03381978997732317       705.4643786158763
0.034095276765188226      704.1717092362022
0.03437116774410313       702.8568478263448
0.03464773097249833       701.5197943863049
0.034924294202460265      700.1050200878035
0.03520018518292322       698.7121946740949
0.03547567197232456       697.3413181451785
0.035751023809559274      695.9923905010545
0.036026510329197556      694.6654117417232
0.036302400770924524      693.360381867184
0.03657896319474637       692.0773008774373
0.036838495506703706      690.8747667915012
0.03709747122597688       689.7297503579332
0.037356112406552636      688.6422515767332
0.03761464196443644       687.6122704479014
0.03787328310424792       686.639806971438
0.03813225874209787       685.7248611473423
0.03839179093218227       684.8674329756149
0.03863570546763781       684.0978793999719
0.038879157791710306      683.3992524557888
0.03912233240906017       682.7715521430654
0.03936541445670531       682.2147784618021
0.039608589283092806      681.7289314119988
0.039852042024763494      681.3140109936551
0.04009595718542905       680.9700172067716
0.040307879631580334      680.7126159645895
0.04051949849477797       680.5126601913332
0.0407309350144797        680.370149887002
0.040942310743905544      680.2850850515963
0.04115374734111909       680.2574656851165
0.04136536635920676       680.2872917875616
0.04157728903736024       680.3745633589324
0.04178920745215007       680.5249973992992
0.042000823426259694      680.7311056883093
0.042212258026551035      680.9928882259629
0.04242363263153709       681.3103450122599
0.0426350687230549        681.6834760472004
0.042846687677050764      682.1122813307842
0.04305861055527523       682.5967608630115
0.04330252486354604       683.1914126355903
0.043545975653630026      683.8591848068817
0.04378914799357473       684.6000773768849
0.044032227587420474      685.4140903456005
0.04427540035169028       686.3012237130287
0.04451885198945311       687.2614774791685
0.044762767566824783      688.294851644021
0.045022299728516735      689.4317213922283
0.04528127533816108       690.61979546101
0.045539916449880535      691.8590738503656
0.045798445979712124      693.1495565602955
0.046057087132201545      694.4912435908001
0.04631606282328052       695.8841349418783
0.046575595106862454      697.3282306135311
0.04685215752913061       698.8658496568034
0.04712804796931999       700.4268946770025
0.04740353448742985       702.011365674128
0.04767888632313835       703.6192626481801
0.04795437311100872       705.2505855991592
0.048230264089928976      706.9053345270646
0.048506827318329566      708.5835094318969
0.04878339054829114       710.169253996113
0.049059281528753745      711.730200384013
0.04933476831815475       713.2663485955973
0.0496101201553891        714.7776986308658
0.04988560667502701       716.2642504898186
0.05016149711675364       717.7260041724552
0.050438059540575134      719.1629596787762
0.05069759185254397       720.3360940171365
0.05095656757182859       721.4552769931765
0.05121520875241573       722.5205086068964
0.05147373831031092       723.5317888582957
0.051732379450133786      724.4891177473751
0.05199135508799517       725.3924952741339
0.05225088727809108       726.2419214385726
0.0524948018135407        726.9143812476436
0.052738254137607306      727.5208306325922
0.05298142875495131       728.0612695934183
0.05322451080259058       728.5356981301219
0.0534676856289722        728.9441162427036
0.05371113837063701       729.2865239311623
0.05395505353129665       729.5629211954988
0.05416697597743634       729.7314254921381
0.054378594840622414      729.8508239316394
0.05459003136031263       729.9211165140024
0.05480140708972696       729.9423032392272
0.05501284368692898       729.9143841073142
0.0552244627050051        729.8373591182626
0.05543638538314697       729.7112282720732
