% Model:              brazing.mph
% Version:            COMSOL 5.3.0.223
% Date:               Oct 24 2018, 04:51
% Dimension:          1
% Nodes:              161
% Expressions:        1
% Description:        Line graph
% x                       Height
0                         653.572192010553
1.9693985890610136E-4     653.5383556162886
3.9298030043864816E-4     653.5155892703016
5.884188308682271E-4      653.5038929725921
7.835557095112735E-4      653.5032667231599
9.786925881542028E-4      653.5137105220051
0.0011741311185834375     653.5352243691277
0.0013701715601154056     653.5678082645279
0.0015671114190207022     653.6114622082054
0.0017642608961497635     653.3730062754113
0.0019605081241513326     653.1302296071217
0.0021561515411346144     652.8831322033366
0.002351492352702621      652.6317140640557
0.0025468331642698894     652.3759751892792
0.0027424765812509564     652.115915579007
0.0029387238092488436     651.8515352332392
0.0031358732863727766     651.5828341519758
0.0033326885608882563     651.2139887103556
0.0035286060983021257     650.8495968506422
0.0037239228519497995     650.4896585728363
0.003918938519653848      650.1341738769373
0.004113954187357973      649.7831427629455
0.004309270941005876      649.4365652308609
0.004505188478420127      649.0944412806832
0.004702003752936137      648.7567709124128
0.004899138702461749      648.4081403351223
0.005095371599302965      648.0757780567382
0.005291000816927052      647.7596840772601
0.005486327495291825      647.4598583966882
0.005681654173656831      647.1763010150225
0.0058772833912816074     646.9090119322631
0.0060735162881239745     646.6579911484098
0.006270651237651189      646.4232386634627
0.006467582778148322      646.2452980985814
0.006663615013526554      646.1003954480726
0.006859045413116663      645.9885307119364
0.0070541741987231454     645.9097038901725
0.007249302984329781      645.8639149827812
0.007444733383920351      645.8511639897623
0.007640765619299351      645.871450911116
0.007837697159797551      645.9247757468421
0.008034634474091872      645.9198307488598
0.008230672405352359      645.9520960036853
0.008426108448549354      646.0215715113189
0.008621242851524007      646.1282572717605
0.008816377254498534      646.2721532850101
0.009011813297695145      646.4532595510676
0.009207851228955002      646.671576069933
0.00940478854324844       646.9271028416066
0.00960192671152544       647.2447281086842
0.00979816278359587       647.5770235950254
0.009993795147248338      647.92398930063
0.010189124956984269      648.2856252254982
0.010384454766719743      648.6619313696299
0.010580087130370853      649.0529077330253
0.010776323202439026      649.4585543156842
0.01097346137071288       649.8788711176065
0.011170281912174305      650.256407790179
0.011366204645540166      650.6434320148434
0.011561526547508357      651.0399437915993
0.011756547339625332      651.445943120447
0.011951568131742307      651.8614300013866
0.0121468900337105        652.2864044344179
0.012342812767076368      652.720866419541
0.0125396333085378        653.1648159567559
0.012736771215691979      653.4564022653379
0.012933007030171178      653.7458159755121
0.013128639138602195      654.0330570872783
0.013323968694306592      654.3181256006366
0.013519298250011432      654.6010215155868
0.013714930358443784      654.881744832129
0.0139111661729252        655.1602955502634
0.014108304080082462      655.4366736699897
0.014305241249097643      655.4320007690901
0.014501279037039759      655.4304138816551
0.014696714938233999      655.4319130076843
0.014891849199866372      655.4364981471781
0.015086983461498874      655.4441693001363
0.015282419362693495      655.454926466559
0.01547845715063625       655.468769646446
0.015675394319652317      655.4856988397976
0.015872325504405583      655.1092404370628
0.01606835738884011       654.7379637902973
0.016263787440706973      654.3718688995011
0.016458915880206496      654.0109557646742
0.016654044319705866      653.6552243858167
0.016849474371572262      653.3046747629284
0.017045506256006017      652.9593068960094
0.017242437440758204      652.6191207850596
0.01743957168037589       652.0540241128483
0.017635803876907424      651.4789112954229
0.01783143240066149       650.8937823327835
0.018026758388388308      650.2986372249301
0.01822208437611492       649.6934759718627
0.01841771289986836       649.0782985735812
0.018613945096398854      648.4531050300857
0.018811079336015085      647.8178953413762
0.019007894687321662      647.1487588914368
0.01920381230049143       646.4815031193386
0.019399129129200405      645.8161280250814
0.01959414487161704       645.1526336086653
0.01978916061403359       644.4910198700902
0.01998447744274231       643.8312868093564
0.020180395055911654      643.1734344264636
0.020377210407217645      642.5174627214118
0.020574360469106157      641.9289661761371
0.020770608273960874      641.361307877846
0.020966252262493188      640.8144878265384
0.021161593642948652      640.2885060222143
0.021356935023404883      639.7833624648736
0.021552579011939476      639.2990571545165
0.021748826816797996      638.8355900911429
0.021945976878691802      638.3929612747528
0.022142917141692885      638.0565016094889
0.022338957981867254      637.7639388159686
0.022534396907280062      637.515272894192
0.02272953417907009       637.3105038441588
0.02292467145086023       637.1496316658692
0.02312011037627338       637.0326563593229
0.02331615121644832       636.9595779245203
0.023513091479450195      636.9303963614612
0.023710025135207962      636.8621348997783
0.02390605945730262       636.8431024821485
0.024101491924457957      636.8732991085719
0.024296622768016963      636.9527247790485
0.024491753611575823      637.0813794935783
0.02468718607873073       637.2592632521613
0.024883220400824673      637.4863760547975
0.025080154056581445      637.7627179014868
0.025277299572591536      638.1517259044489
0.025473542893039384      638.5619911343656
0.02566918243840792       638.9935135912365
0.025864519396400307      639.446293275062
0.026059856354392216      639.9203301858417
0.026255495899759323      640.4156243235761
0.026451739220204794      640.9321756882648
0.026648884736211575      641.4699842799079
0.02684569473774919       642.05885450734
0.027041607073256636      642.6530561576856
0.027236918672681274      643.2525892309446
0.027431929210095855      643.8574537271169
0.027626939747510428      644.4676496462026
0.027822251346935042      645.0831769882016
0.028018163682442445      645.704035753114
0.028214973683980002      646.3302259409398
0.028412120943583204      646.9303277777716
0.028608365984047285      647.5186762816677
0.02880400723361381       648.0952714526287
0.02899934588786498       648.6601132906541
0.02919468454211669       649.2132017957441
0.029390325791684838      649.7545369678986
0.02958657083215161       650.2841188071177
0.029783718091758563      650.8019473134013
0.029980652759780888      651.1484509726636
0.030176688080480362      651.4948908970347
0.030372121537075924      651.8412670865151
0.03056725336547531       652.1875795411045
0.030762385193874833      652.5338282608029
0.030957818650470807      652.8800132456106
0.031153853971170976      653.2261344955272
0.031350788639194264      653.572192010553
