% Model:              brazing.mph
% Version:            COMSOL 5.3.0.223
% Date:               Oct 24 2018, 05:15
% Dimension:          1
% Nodes:              225
% Expressions:        1
% Description:        Line graph
% x                       Height
0                         697.9379398957236
2.1191841480136804E-4     697.8265972503831
4.2353438892247565E-4     697.6719647265085
6.349689892252786E-4      697.4740423240995
8.463435942227858E-4      697.2328300431567
0.001057779685752053      696.9483278836799
0.001269398639759412      696.6205358456687
0.001481321517995422      696.2494539291234
0.0017252358262731596     695.7582672064618
0.0019686866163640313     695.2302058396873
0.0022118589563155885     694.6652698288
0.002454938550168189      694.0634591737999
0.0026981113144448556     693.4247738746874
0.0029415629522145732     692.7492139314616
0.0031854785295931678     692.0367793441231
0.0034450106912723537     691.1785120665307
0.0037039863009040125     690.2835613316361
0.003962627412610827      689.3519271394396
0.0042211569424298        688.3836094899411
0.004479798094906585      687.3786083831408
0.004738773785972872      686.3369238190382
0.004998306069542035      685.2585557976339
0.005274868491808245      684.0175575279968
0.005550758931995686      682.7562097012122
0.0058262454501036105     681.4745123172802
0.006101597285810183      680.1724653762009
0.006377084073678616      678.8500688779746
0.006652975052596927      677.5073228226006
0.006929538280995558      676.1442272100794
0.007206101510950518      674.7437027357676
0.007481992491406557      673.3598894707737
0.007757479280801014      671.9927874150981
0.00803283111802884       670.6423965687405
0.008308317637660222      669.3087169317014
0.008584208079380276      667.9917485039801
0.008860770503195153      666.6914912855772
0.009120302815147717      665.4776303882288
0.00937927853441616       664.3073422872769
0.009637919714987194      663.1806269827217
0.009896449272866283      662.0974844745634
0.010155090412673047      661.0579147628019
0.010414066050518256      660.0619178474369
0.01067359824059789       659.1094937284687
0.010917512776055054      658.2440177921525
0.011160965100129169      657.434139874511
0.011404139717480647      656.6798599755439
0.01164722176512739       655.9811780952516
0.011890396591516505      655.3380942336341
0.012133849333188814      654.7506083906909
0.012377764493855997      654.2187205664225
0.01258968694000722       653.802058487754
0.012801305803204788      653.4302964974995
0.013012742322906452      653.1034345956587
0.013224118052332232      652.8214727822315
0.01343555464954572       652.5844110572186
0.013647173667633327      652.392249420619
0.013859096345786744      652.2449878724334
0.014071014760598048      652.1585065130503
0.014282630734729056      652.1161599221235
0.01449406533504172       652.1179480996525
0.014705439940049088      652.1638710456377
0.014916876031588231      652.2539287600794
0.015128494985605482      652.3881212429768
0.015340417863851432      652.5664484943305
0.01558433217214941       652.7938410339247
0.015827782962260412      653.0850579551528
0.016070955302232025      653.4400992580146
0.016314034896104664      653.8589649425105
0.0165572076604014        654.3416550086406
0.01680065929819124       654.8881694564042
0.01704457487559009       655.498508285802
0.01730410703726679       656.1708853408782
0.017563082646895985      656.887378220407
0.01782172375860034       657.6479869243884
0.018080253288416847      658.4527114528227
0.01833889444089119       659.30155180571
0.018597870131955005      660.1945079830497
0.018857402415521692      661.1315799848423
0.019133964837753384      662.1474314511187
0.019409855277906563      663.1834106552928
0.019685341795980367      664.2395175973652
0.019960693631652874      665.3157522773356
0.0202361804194872        666.4121146952043
0.020512071398371242      667.5286048509707
0.020788634626735362      668.6652227446355
0.02106519785666259       669.7833341961037
0.021341088837091095      670.8888236029641
0.021616575626458134      671.9816909652156
0.02189192746365859       673.061936282859
0.022167413983262562      674.1295595558945
0.02244330442495508       675.184560784321
0.022719866848742224      676.2269399681396
0.022979399160698737      677.1214011506862
0.023238374879971102      677.9908704742315
0.023497016060546046      678.835347938775
0.023755545618429033      679.6548335443172
0.02401418675823971       680.449327290858
0.024273162396088833      681.2188291783971
0.024532694586172417      681.9633392069347
0.02477660912165014       682.5955282285349
0.02502006144574469       683.1930520029185
0.025263236063116538      683.7559105300847
0.025506318110783622      684.284103810034
0.025749492937193107      684.7776318427667
0.02599294567888585       685.2364946282818
0.026236860839573585      685.6606921665802
0.026448783285734738      685.9772185547803
0.02666040214894219       686.2709392396678
0.026871838668653707      686.5418542212424
0.027083214398089334      686.7899634995041
0.027294650995312687      687.0152670744534
0.027506270013410168      687.2177649460895
0.02771819269157351       687.397457114413
0.02793011110637494       687.496866495794
0.028141727080496122      687.5713089688174
0.028353161680798985      687.6207845334833
0.028564536285796558      687.6452931897915
0.028775972377325904      687.6448349377424
0.028987591331333325      687.6194097773354
0.029199514209569403      687.5690177085709
0.02944342851784522       687.3775123589777
0.02968687930793418       687.1417595610112
0.02993005164788383       686.8617593146714
0.030173131241734534      686.5375116199584
0.0304163040060093        686.1690164768727
0.0306597556437771        685.7562738854132
0.030903671221153783      685.2992838455807
0.031163203382828072      684.6579147987495
0.03142217899245488       683.9685532399303
0.03168082010415685       683.2311991691232
0.03193934963397098       682.4458525863283
0.032197990786442934      681.6125134915459
0.03245696647750436       680.7311818847754
0.032716498761068635      679.8018577660172
0.03299306118333142       678.6433227381425
0.03326895162351545       677.4621874208761
0.03354443814161999       676.2584518142174
0.03381978997732317       675.0321159181669
0.034095276765188226      673.7831797327249
0.03437116774410313       672.5116432578903
0.03464773097249833       671.2175064936641
0.034924294202460265      669.8598117761779
0.03520018518292322       668.521695685243
0.03547567197232456       667.2031582208592
0.035751023809559274      665.9041993830267
0.036026510329197556      664.6248191717459
0.036302400770924524      663.365017587016
0.03657896319474637       662.1247946288377
0.036838495506703706      660.967109754822
0.03709747122597688       659.8642749378532
0.037356112406552636      658.8162901779314
0.03761464196443644       657.823155475056
0.03787328310424792       656.8848708292278
0.03813225874209787       656.0014362404461
0.03839179093218227       655.1728517087113
0.03863570546763781       654.4286157722721
0.038879157791710306      653.7528166746938
0.03912233240906017       653.1454544159761
0.03936541445670531       652.6065289961192
0.039608589283092806      652.1360404151234
0.039852042024763494      651.733988672988
0.04009595718542905       651.4003737697135
0.040307879631580334      651.1488463024542
0.04051949849477797       650.9524719542742
0.0407309350144797        650.811250725173
0.040942310743905544      650.7251826151511
0.04115374734111909       650.6942676242085
0.04136536635920676       650.7185057523446
0.04157728903736024       650.7978969995602
0.04178920745215007       650.9382196619881
0.042000823426259694      651.131935955492
0.042212258026551035      651.3790458800715
0.04242363263153709       651.679549435727
0.0426350687230549        652.0334466224587
0.042846687677050764      652.4407374402658
0.04305861055527523       652.901421889149
0.04330252486354604       653.4630513214036
0.043545975653630026      654.0959318170386
0.04378914799357473       654.8000633760539
0.044032227587420474      655.5754459984495
0.04427540035169028       656.422079684226
0.04451885198945311       657.3399644333823
0.044762767566824783      658.3291002459192
0.045022299728516735      659.4164225398356
0.04528127533816108       660.5522523208688
0.045539916449880535      661.7365895890181
0.045798445979712124      662.969434344284
0.046057087132201545      664.2507865866665
0.04631606282328052       665.5806463161654
0.046575595106862454      666.9590135327808
0.04685215752913061       668.4322434843568
0.04712804796931999       669.9270467573808
0.04740353448742985       671.443423351852
0.04767888632313835       672.9813732677709
0.04795437311100872       674.5408965051377
0.048230264089928976      676.1219930639515
0.048506827318329566      677.7246629442133
0.04878339054829114       679.2479208896823
0.049059281528753745      680.7464745302742
0.04933476831815475       682.2203238659888
0.0496101201553891        683.6694688968264
0.04988560667502701       685.0939096227871
0.05016149711675364       686.4936460438703
0.050438059540575134      687.8686781600767
0.05069759185254397       688.9935198631742
0.05095656757182859       690.0663604258556
0.05121520875241573       691.0871998481199
0.05147373831031092       692.0560381299675
0.051732379450133786      692.9728752713988
0.05199135508799517       693.8377112724131
0.05225088727809108       694.650546133011
0.0524948018135407        695.2936238092763
0.052738254137607306      695.8733166513164
0.05298142875495131       696.3896246591314
0.05322451080259058       696.8425478327213
0.0534676856289722        697.2320861720863
0.05371113837063701       697.5582396772257
0.05395505353129665       697.8210083481403
0.05416697597743634       697.9793979553361
0.054378594840622414      698.0905591957327
0.05459003136031263       698.1544920693296
0.05480140708972696       698.1711965761272
0.05501284368692898       698.1406727161256
0.0552244627050051        698.0629204893243
0.05543638538314697       697.9379398957236
