% Model:              brazing.mph
% Version:            COMSOL 5.3.0.223
% Date:               Oct 24 2018, 04:55
% Dimension:          1
% Nodes:              225
% Expressions:        1
% Description:        Line graph
% x                       Height
0                         661.9515053498303
2.1191841480136804E-4     661.85793973055
4.2353438892247565E-4     661.7246507080763
6.349689892252786E-4      661.5516382824088
8.463435942227858E-4      661.3389024535479
0.001057779685752053      661.0864432214937
0.001269398639759412      660.7942605862455
0.001481321517995422      660.462354547804
0.0017252358262731596     660.0196941496322
0.0019686866163640313     659.5451521414997
0.0022118589563155885     659.0387285234061
0.002454938550168189      658.5004232953519
0.0026981113144448556     657.9302364573372
0.0029415629522145732     657.3281680093612
0.0031854785295931678     656.6942179514247
0.0034450106912723537     655.9165532604707
0.0037039863009040125     655.1061949891181
0.003962627412610827      654.2631431373668
0.0042211569424298        653.3873977052169
0.004479798094906585      652.4789586926688
0.004738773785972872      651.5378260997218
0.004998306069542035      650.5639999263764
0.005274868491808245      649.4296890228537
0.005550758931995686      648.2773551058756
0.0058262454501036105     647.1069981754418
0.006101597285810183      645.9186182315527
0.006377084073678616      644.7122152742085
0.006652975052596927      643.4877893034084
0.006929538280995558      642.2453403191531
0.007206101510950518      640.9617041395011
0.007481992491406557      639.6952383040335
0.007757479280801014      638.44594281275
0.00803283111802884       637.2138176656509
0.008308317637660222      635.9988628627366
0.008584208079380276      634.8010784040061
0.008860770503195153      633.6204642894603
0.009120302815147717      632.5140374318482
0.00937927853441616       631.449309660895
0.009637919714987194      630.4262809766005
0.009896449272866283      629.4449513789648
0.010155090412673047      628.5053208679883
0.010414066050518256      627.6073894436702
0.01067359824059789       626.7511571060111
0.010917512776055054      625.9714270823613
0.011160965100129169      625.2439213117798
0.011404139717480647      624.5686397942666
0.01164722176512739       623.9455825298218
0.011890396591516505      623.3747495184458
0.012133849333188814      622.8561407601378
0.012377764493855997      622.3897562548985
0.01258968694000722       622.0274778760928
0.012801305803204788      621.7068177288854
0.013012742322906452      621.4277758132763
0.013224118052332232      621.1903521292654
0.01343555464954572       620.9945466768531
0.013647173667633327      620.8403594560388
0.013859096345786744      620.727790466823
0.014071014760598048      620.6738506861265
0.014282630734729056      620.6606518062869
0.01449406533504172       620.6881938273042
0.014705439940049088      620.7564767491784
0.014916876031588231      620.8655005719097
0.015128494985605482      621.0152652954979
0.015340417863851432      621.205770919943
0.01558433217214941       621.4423740425998
0.015827782962260412      621.7392184734186
0.016070955302232025      622.0963042123996
0.016314034896104664      622.5136312595428
0.0165572076604014        622.9911996148484
0.01680065929819124       623.5290092783158
0.01704457487559009       624.1270602499455
0.01730410703726679       624.7804951174322
0.017563082646895985      625.4748825991611
0.01782172375860034       626.2102226951321
0.018080253288416847      626.9865154053455
0.01833889444089119       627.8037607298012
0.018597870131955005      628.6619586684989
0.018857402415521692      629.561109221439
0.019133964837753384      630.5300684788617
0.019409855277906563      631.5175949750934
0.019685341795980367      632.5236887101336
0.019960693631652874      633.5483496839826
0.0202361804194872        634.5915778966407
0.020512071398371242      635.6533733481072
0.020788634626735362      636.7337360383825
0.02106519785666259       637.7935758423775
0.021341088837091095      638.8411491533848
0.021616575626458134      639.876455971404
0.02189192746365859       640.8994962964352
0.022167413983262562      641.910270128479
0.02244330442495508       642.9087774675346
0.022719866848742224      643.8950183136023
0.022979399160698737      644.7279327465714
0.023238374879971102      645.5380473979119
0.023497016060546046      646.3253622676234
0.023755545618429033      647.0898773557066
0.02401418675823971       647.8315926621614
0.024273162396088833      648.5505081869871
0.024532694586172417      649.2466239301846
0.02477660912165014       649.8284591181166
0.02502006144574469       650.3769847811059
0.025263236063116538      650.892200919152
0.025506318110783622      651.3741075322552
0.025749492937193107      651.8227046204157
0.02599294567888585       652.2379921836329
0.026236860839573585      652.6199702219074
0.026448783285734738      652.8986788808838
0.02666040214894219       653.1585210277241
0.026871838668653707      653.3994966624279
0.027083214398089334      653.6216057849954
0.027294650995312687      653.8248483954269
0.027506270013410168      654.009224493722
0.02771819269157351       654.1747340798807
0.02793011110637494       654.2529011028734
0.028141727080496122      654.3107433002368
0.028353161680798985      654.3482606719713
0.028564536285796558      654.3654532180767
0.028775972377325904      654.3623209385532
0.028987591331333325      654.3388638334005
0.029199514209569403      654.295081902619
0.02944342851784522       654.1129153328338
0.02968687930793418       653.8888369825266
0.02993005164788383       653.6228468516977
0.030173131241734534      653.3149449403467
0.0304163040060093        652.9651312484743
0.0306597556437771        652.5734057760797
0.030903671221153783      652.1397685231633
0.031163203382828072      651.5205495301908
0.03142217899245488       650.856086236044
0.03168082010415685       650.1463786407223
0.03193934963397098       649.3914267442262
0.032197990786442934      648.591230546556
0.03245696647750436       647.7457900477107
0.032716498761068635      646.8551052476911
0.03299306118333142       645.7342672354184
0.03326895162351545       644.592165239495
0.03354443814161999       643.4287992599211
0.03381978997732317       642.2441692966969
0.034095276765188226      641.0382753498221
0.03437116774410313       639.8111174192966
0.03464773097249833       638.5626955051207
0.034924294202460265      637.248414131125
0.03520018518292322       635.9537288498319
0.03547567197232456       634.6786396612416
0.035751023809559274      633.4231465653539
0.036026510329197556      632.1872495621693
0.036302400770924524      630.9709486516871
0.03657896319474637       629.7742438339078
0.036838495506703706      628.6524375150241
0.03709747122597688       627.5833897181478
0.037356112406552636      626.567100443279
0.03761464196443644       625.6035696904174
0.03787328310424792       624.6927974595635
0.03813225874209787       623.8347837507167
0.03839179093218227       623.0295285638775
0.03863570546763781       622.3017932740302
0.038879157791710306      621.6388239057616
0.03912233240906017       621.0406204590721
0.03936541445670531       620.5071829339614
0.039608589283092806      620.0385113304301
0.039852042024763494      619.6346056484773
0.04009595718542905       619.2954658881038
0.040307879631580334      619.0356987065857
0.04051949849477797       618.8275784369797
0.0407309350144797        618.6711050792857
0.040942310743905544      618.5662786335038
0.04115374734111909       618.5130990996342
0.04136536635920676       618.5115664776765
0.04157728903736024       618.5616807676312
0.04178920745215007       618.6696496034389
0.042000823426259694      618.8276606757611
0.042212258026551035      619.0357139845978
0.04242363263153709       619.2938095299489
0.0426350687230549        619.6019473118147
0.042846687677050764      619.9601273301947
0.04305861055527523       620.3683495850894
0.04330252486354604       620.863648709514
0.043545975653630026      621.4272597735875
0.04378914799357473       622.0591827773097
0.044032227587420474      622.7594177206809
0.04427540035169028       623.527964603701
0.04451885198945311       624.3648234263696
0.044762767566824783      625.2699941886874
0.045022299728516735      626.2631371955206
0.04528127533816108       627.3026209232555
0.045539916449880535      628.3884453718922
0.045798445979712124      629.5206105414305
0.046057087132201545      630.6991164318708
0.04631606282328052       631.9239630432127
0.046575595106862454      633.1951503754564
0.04685215752913061       634.5521506891855
0.04712804796931999       635.9315415829888
0.04740353448742985       637.3333230568662
0.04767888632313835       638.7574951108178
0.04795437311100872       640.204057744844
0.048230264089928976      641.673010958944
0.048506827318329566      643.1643547531185
0.04878339054829114       644.5828408456656
0.049059281528753745      645.9799205857275
0.04933476831815475       647.3555939733042
0.0496101201553891        648.7098610083957
0.04988560667502701       650.0427216910023
0.05016149711675364       651.3541760211233
0.050438059540575134      652.6442239987592
0.05069759185254397       653.6865766519852
0.05095656757182859       654.681792288278
0.05121520875241573       655.6298709076374
0.05147373831031092       656.5308125100635
0.051732379450133786      657.3846170955567
0.05199135508799517       658.1912846641161
0.05225088727809108       658.9508152157425
0.0524948018135407        659.5452677568962
0.052738254137607306      660.0805175328795
0.05298142875495131       660.556564543692
0.05322451080259058       660.9734087893338
0.0534676856289722        661.3310502698054
0.05371113837063701       661.6294889851057
0.05395505353129665       661.8687249352356
0.05416697597743634       662.0083055476628
0.054378594840622414      662.1053012137855
0.05459003136031263       662.1597119336036
0.05480140708972696       662.1715377071171
0.05501284368692898       662.1407785343263
0.0552244627050051        662.0674344152304
0.05543638538314697       661.9515053498303
