% Model:              brazing.mph
% Version:            COMSOL 5.3.0.223
% Date:               Oct 24 2018, 01:53
% Dimension:          1
% Nodes:              225
% Expressions:        1
% Description:        Line graph
% x                       Height
0                         675.9818404247366
2.02242572596226E-4       675.9671981461898
4.040113375593453E-4      675.8888692757126
6.054635867748898E-4      675.746853813305
8.067573541103817E-4      675.5411517589669
0.0010080510467017985     675.2717631126982
0.001209503071861434      674.938687874499
0.0014112714639836859     674.5419260443693
0.001613513515825394      674.0814776223094
0.001815803045808458      673.6671636138013
0.0020176184164428694     673.2059585249167
0.0022191170764546647     672.6978623556555
0.0024204572175778446     672.1428751060176
0.00262179740518867       671.5409967760032
0.002823296204553664      670.8922273656119
0.0030251118070788686     670.1965668748443
0.003227401660948015      669.4540153036999
0.0034297372965816655     668.7339934899754
0.003631598594156443      667.9767275367396
0.0038331430353414214     667.1822174439924
0.004034528845142556      666.3504632117335
0.004235914622467191      665.4814648399633
0.004437458966299354      664.5752223286815
0.004639320101874085      663.6317356778884
0.004841655511239337      662.6510048875839
0.005043918276497792      661.7543073277538
0.005245706959792293      660.8454273667643
0.0054471789681153834     659.9243650046151
0.00564849245128538       658.9911202413064
0.005849805932728159      658.045693076838
0.006051277935873691      657.0880835112101
0.00625306661055245       656.1182915444226
0.006455329363777148      655.1363171764756
0.0066576887471433525     654.1852524101705
0.0068595736811967985     653.2528245644647
0.007061141707903535      652.3390336393583
0.007262551112883539      651.4438796348511
0.007463960555734714      650.5673625509432
0.007665528695965537      649.7094823876346
0.00786741381892875       648.8702391449254
0.0080697734661485        648.0496328228155
0.008272395437950266      647.3108999305373
0.008474540847339949      646.5953896313869
0.008676367906616744      645.9031019253644
0.008878035577337231      645.2340368124698
0.009079703197965442      644.588194292703
0.009281530107084053      643.965574366064
0.00948367526660416       643.366177032553
0.009686296889411194      642.7900022921698
0.009888748367913874      642.4200885809834
0.010090724718905934      642.0888167649344
0.010292383720552634      641.7961868440229
0.010493883896490891      641.5421988182488
0.010695384145210549      641.3268526876121
0.010897043365029401      641.150148452113
0.011099020079070253      641.012086111751
0.011301472064648224      640.9126656665267
0.011503924099142101      640.9175910927042
0.011705900863193036      640.9623263124495
0.011907560133099505      641.0468713257623
0.012109060430962503      641.1712261326427
0.012310560654077738      641.3353907330907
0.012512219699917606      641.5393651271062
0.012714196091111104      641.7831493146892
0.012916647604829811      642.06674329584
0.013119269382981878      642.501578246348
0.013321414683399362      642.9681349437445
0.013523241722808088      643.4664133880294
0.013724909467002238      643.9964135792028
0.013926577258472442      644.5581355172645
0.014128404439597363      645.151579202215
0.014330549975836581      645.7767446340534
0.01453317208336263       646.4336318127805
0.014735531766219815      647.1611524328862
0.014937416940401616      647.9013989305537
0.015138985143475461      648.6543713057831
0.015340394656791169      649.4200695585745
0.015541804135826716      650.1984936889277
0.015743372236141022      650.9896436968428
0.015945257239325793      651.7935195823196
0.01614761668334845       652.6101213453585
0.01634987940592303       653.5427488655814
0.016551668047823844      654.4624212477829
0.016753140015983766      655.3691384919629
0.0169544534601584        656.2629005981213
0.017155766903708087      657.1437075662582
0.017357238869994664      658.0115593963736
0.017559027508778132      658.8664560884677
0.01776129022699866       659.7083976425401
0.017963625484858744      660.5791652754197
0.018165486461237414      661.4250227035868
0.018367030641941378      662.2459699270414
0.018568416255992027      663.0420069457837
0.018769801906169285      663.8131337598136
0.018971346195167795      664.5593503691308
0.019173207351754082      665.2806567737357
0.019375542861313405      665.9770529736281
0.019577832661189145      666.6955241721499
0.019779648217873542      667.3615214193253
0.019981146975907166      667.9750447151544
0.020182487123025287      668.5360940596369
0.020383827220813066      669.0446694527731
0.020585325830972126      669.5007708945628
0.020787141141585735      669.9043983850062
0.020989430597769934      670.2555519241031
0.021191672662378012      670.7115645166488
0.021393441061935803      671.1036808956716
0.02159489309031221       671.4319010611716
0.021796186783028852      671.6962250131489
0.021997480548535182      671.8966527516035
0.022198932795108938      672.0331842765353
0.022400701557758636      672.105819587944
0.02260294412950465       672.1145586858303
0.02280539620920995       672.1713152398745
0.023007373018156245      672.1618174438248
0.02320903233274668       672.0860652976812
0.023410532675187733      671.9440588014438
0.023612032942881025      671.7357979551123
0.023813692033404853      671.4612827586869
0.024015668469493705      671.1205132121677
0.024218120028423832      670.7134893155546
0.024420742013481003      670.3263578432486
0.02462288751935683       669.8849457574748
0.02482471476325633       669.3892530582335
0.02502638271145666       668.8392797455244
0.025228050706933344      668.2350258193477
0.025429878092549915      667.5764912797033
0.025632023834248962      666.8636761265913
0.025834646148682177      666.0965803600116
0.026037006051731277      665.3272158509391
0.026238891444565628      664.5170977101183
0.02644045986526205       663.6662259375491
0.026641869595683754      662.7746005332318
0.02684327929182417       661.8422214971663
0.027044847609757647      660.8690888293523
0.02724673283158932       659.8552025297903
0.027449092495796006      658.8005625984798
0.02765135518998453       657.774599169696
0.027853143803698084      656.7396290419455
0.028054615743803996      655.6956522152282
0.028255929159991804      654.6426686895443
0.028457242575555555      653.5806784648937
0.028658714513790734      652.5096815412763
0.028860503124391312      651.4296779186925
0.029062765814231884      650.3406675971419
0.029265100752448706      649.2583354841147
0.02946696141141544       648.2015062654435
0.029668505276199596      647.1701799411283
0.029869890575077548      646.1643565111688
0.03007127591008127       645.1840359755652
0.030272819883157453      644.2292183343176
0.03047468072232762       643.2999035874258
0.030677015912237836      642.3960917348899
0.030879305594778746      641.5697873078037
0.03108112103494649       640.780685853912
0.031282619677010744      640.028787373215
0.03148395970843373       639.3140918657125
0.0316852996905265        638.6365993314046
0.031886798184716555      637.9963097702913
0.032088613378814135      637.3932231823725
0.03229090271766436       636.8273395676483
0.03249314477533616       636.4489092049644
0.03269491316800606       636.1249861475151
0.03289636518952694       635.8555703953006
0.03309765887540427       635.6406619483208
0.033298952634071295      635.4802608065759
0.033500404873789524      635.3743669700657
0.03370217362955133       635.3229804387902
0.03390441619436107       635.3261012127494
0.03410686840969767       635.4352835734943
0.03430884535332711       635.5993245413148
0.0345105048019665        635.8182241162108
0.034712005278138794      636.0919822981824
0.03491350567956333       636.4205990872296
0.03511516490413611       636.8040744833523
0.035317141474908095      637.2424084865506
0.03551959316946952       637.7356010968244
0.035722216260139425      638.3738972722529
0.03592436286389621       639.0541022604818
0.036126191200505704      639.7762160615114
0.03632786023882611       640.5402386753415
0.03652952932442421       641.3461701019722
0.036731357802754806      642.1940103414034
0.03693350464234149       643.0837593936354
0.03713612806239678       644.0154172586679
0.03733848789969145       645.0102209349409
0.037540373227224554      646.0252751059901
0.03774194158292153       647.0605797718155
0.03794335124849304       648.116134932417
0.03814476087977932       649.1919405877948
0.03834632913270157       650.2879967379484
0.03854821428921239       651.4043033828785
0.038750573887637245      652.5408605225846
0.03895283596123875       653.7453148990624
0.039154623958694366      654.9359015107357
0.039356095285438375      656.1126203576048
0.03955740808971597       657.2754714396697
0.03975872089337115       658.4244547569301
0.03996019221824938       659.5595703093863
0.04016198021260023       660.6808180970381
0.04036424228186526       661.7881981198857
0.040566577948397485      662.8826815908807
0.040768439330593605      663.9416349202476
0.04096998391520435       664.9650581079862
0.04117136993220262       665.9529511540967
0.04137275598532357       666.905314058579
0.04157430067821714       667.8221468214332
0.04177616224060133       668.7034494426591
0.0419784981588055        669.5492219222571
0.04218078754816035       670.3799991066381
0.04238260269718259       671.1471660310793
0.04258410104946696       671.8507226955809
0.04278544079179545       672.4906691001424
0.04298678048479618       673.0670052447641
0.043188278689213704      673.579731129446
0.043390093592177985      674.0288467541881
0.04359238263785921       674.4143521189903
0.043794623705544454      674.8532486903817
0.04399639111513442       675.2227279665809
0.04419784215819482       675.5227899475876
0.04439913486792596       675.7534346334021
0.044600427650446826      675.9146620240243
0.04480187891170468       676.0064721194539
0.045003646684386715      676.0288649196915
0.04520588825921017       675.9818404247366
