% Model:              brazing.mph
% Version:            COMSOL 5.3.0.223
% Date:               Oct 24 2018, 04:41
% Dimension:          1
% Nodes:              225
% Expressions:        1
% Description:        Line graph
% x                       Height
0                         677.614602315798
2.02242572596226E-4       677.6164805295664
4.040113375593453E-4      677.5617079970447
6.054635867748898E-4      677.4502847182329
8.067573541103817E-4      677.2822106931311
0.0010080510467017985     677.0574859217393
0.001209503071861434      676.7761104040575
0.0014112714639836859     676.4380841400855
0.001613513515825394      676.0434071298234
0.001815803045808458      675.693148251748
0.0020176184164428694     675.3010140751176
0.0022191170764546647     674.8670045999322
0.0024204572175778446     674.3911198261919
0.00262179740518867       673.8733597538966
0.002823296204553664      673.3137243830464
0.0030251118070788686     672.7122137136413
0.003227401660948015      672.0688277456813
0.0034297372965816655     671.4410050221425
0.003631598594156443      670.7804958996817
0.0038331430353414214     670.087300378299
0.004034528845142556      669.3614184579943
0.004235914622467191      668.6028501387678
0.004437458966299354      667.8115954206191
0.004639320101874085      666.9876543035488
0.004841655511239337      666.1310267875563
0.005043918276497792      665.3469289026796
0.005245706959792293      664.5523884000254
0.0054471789681153834     663.7474052795936
0.00564849245128538       662.9319795413844
0.005849805932728159      662.1061111853977
0.006051277935873691      661.2698002116333
0.00625306661055245       660.4230466200918
0.006455329363777148      659.5658504107724
0.0066576887471433525     658.7336108950052
0.0068595736811967985     657.9180208535018
0.007061141707903535      657.1190802862626
0.007262551112883539      656.3367891932871
0.007463960555734714      655.5711475745758
0.007665528695965537      654.8221554301282
0.00786741381892875       654.0898127599446
0.0080697734661485        653.374119564025
0.008272395437950266      652.7285076607136
0.008474540847339949      652.1037453075919
0.008676367906616744      651.4998325046598
0.008878035577337231      650.9167692519173
0.009079703197965442      650.3545555493645
0.009281530107084053      649.8131913970016
0.00948367526660416       649.2926767948279
0.009686296889411194      648.7930117428442
0.009888748367913874      648.4736220311362
0.010090724718905934      648.1885861503357
0.010292383720552634      647.9379041004427
0.010493883896490891      647.7215758814572
0.010695384145210549      647.5396014933792
0.010897043365029401      647.3919809362088
0.011099020079070253      647.2787142099459
0.011301472064648224      647.1998013145906
0.011503924099142101      647.2101770512477
0.011705900863193036      647.2558608305292
0.011907560133099505      647.3368526524349
0.012109060430962503      647.453152516965
0.012310560654077738      647.6047604241195
0.012512219699917606      647.7916763738982
0.012714196091111104      648.0139003663014
0.012916647604829811      648.2714324013289
0.013119269382981878      648.6618517054116
0.013321414683399362      649.0803369895697
0.013523241722808088      649.5268882538033
0.013724909467002238      650.0015054981126
0.013926577258472442      650.5041887224972
0.014128404439597363      651.0349379269576
0.014330549975836581      651.5937531114934
0.01453317208336263       652.1806342761046
0.014735531766219815      652.8270300283821
0.014937416940401616      653.4847142381523
0.015138985143475461      654.153686905415
0.015340394656791169      654.8339480301706
0.015541804135826716      655.5254976124189
0.015743372236141022      656.2283356521599
0.015945257239325793      656.9424621493935
0.01614761668334845       657.6678771041198
0.01634987940592303       658.4942289015322
0.016551668047823844      659.3093324126197
0.016753140015983766      660.1131876373822
0.0169544534601584        660.9057945758198
0.017155766903708087      661.6871532279323
0.017357238869994664      662.4572635937199
0.017559027508778132      663.2161256731824
0.01776129022699866       663.9637394663201
0.017963625484858744      664.7334283701758
0.018165486461237414      665.4809463829458
0.018367030641941378      666.2062935046303
0.018568416255992027      666.9094697352291
0.018769801906169285      667.5904750747422
0.018971346195167795      668.2493095231699
0.019173207351754082      668.8859730805118
0.019375542861313405      669.5004657467682
0.019577832661189145      670.1277604566682
0.019779648217873542      670.7086022827406
0.019981146975907166      671.2429912249854
0.020182487123025287      671.7309272834028
0.020383827220813066      672.1724104579928
0.020585325830972126      672.5674407487551
0.020787141141585735      672.9160181556899
0.020989430597769934      673.2181426787973
0.021191672662378012      673.6096128161153
0.021393441061935803      673.9439815094495
0.02159489309031221       674.2212487588001
0.021796186783028852      674.4414145641671
0.021997480548535182      674.6044789255503
0.022198932795108938      674.7104418429502
0.022400701557758636      674.7593033163661
0.02260294412950465       674.7510633457985
0.02280539620920995       674.7796323311208
0.023007373018156245      674.7490761589236
0.02320903233274668       674.6593948292069
0.023410532675187733      674.5105883419709
0.023612032942881025      674.3026566972153
0.023813692033404853      674.0355998949404
0.024015668469493705      673.7094179351459
0.024218120028423832      673.3241108178321
0.024420742013481003      672.9615769523447
0.02462288751935683       672.5508436907243
0.02482471476325633       672.0919110329708
0.02502638271145666       671.584778979084
0.025228050706933344      671.0294475290642
0.025429878092549915      670.4259166829113
0.025632023834248962      669.7741864406254
0.025834646148682177      669.0742568022063
0.026037006051731277      668.3693867432506
0.026238891444565628      667.6287309638858
0.02644045986526205       666.8522894641117
0.026641869595683754      666.0400622439283
0.02684327929182417       665.1920493033358
0.027044847609757647      664.308250642334
0.02724673283158932       663.3886662609232
0.027449092495796006      662.4332961591028
0.02765135518998453       661.5033526133127
0.027853143803698084      660.5659546629358
0.028054615743803996      659.6211023079721
0.028255929159991804      658.6687955484217
0.028457242575555555      657.7090343842845
0.028658714513790734      656.7418188155602
0.028860503124391312      655.7671488422495
0.029062765814231884      654.7850244643519
0.029265100752448706      653.8077230823187
0.02946696141141544       652.8535652774165
0.029668505276199596      651.9225510496451
0.029869890575077548      651.0146803990046
0.03007127591008127       650.1299533254951
0.030272819883157453      649.2683698291163
0.03047468072232762       648.4299299098686
0.030677015912237836      647.6146335677518
0.030879305594778746      646.8664636523873
0.03108112103494649       646.1518189915745
0.031282619677010744      645.4706995853134
0.03148395970843373       644.8231054336038
0.0316852996905265        644.209036536446
0.031886798184716555      643.6284928938398
0.032088613378814135      643.0814745057853
0.03229090271766436       642.5679813722825
0.03249314477533616       642.2218874266251
0.03269491316800606       641.9246961536953
0.03289636518952694       641.6764075534929
0.03309765887540427       641.477021626018
0.033298952634071295      641.3265383712705
0.033500404873789524      641.2249577892505
0.03370217362955133       641.172279879958
0.03390441619436107       641.1685046433928
0.03410686840969767       641.2571657185541
0.03430884535332711       641.3950098201557
0.0345105048019665        641.5820369481977
0.034712005278138794      641.8182471026801
0.03491350567956333       642.1036402836028
0.03511516490413611       642.4382164909659
0.035317141474908095      642.8219757247693
0.03551959316946952       643.2549179850131
0.035722216260139425      643.8176754809333
0.03592436286389621       644.418208685208
0.036126191200505704      645.0565175978369
0.03632786023882611       645.7326022188203
0.03652952932442421       646.446462548158
0.036731357802754806      647.1980985858501
0.03693350464234149       647.9875103318966
0.03713612806239678       648.8146977862974
0.03733848789969145       649.6968865521937
0.037540373227224554      650.5976060121126
0.03774194158292153       651.5168561660539
0.03794335124849304       652.4546370140177
0.03814476087977932       653.4109485560041
0.03834632913270157       654.3857907920129
0.03854821428921239       655.3791637220444
0.038750573887637245      656.3910673460982
0.03895283596123875       657.4637984029986
0.039154623958694366      658.5250969928069
0.039356095285438375      659.5749631155231
0.03955740808971597       660.6133967711474
0.03975872089337115       661.6403979596797
0.03996019221824938       662.6559666811199
0.04016198021260023       663.6601029354681
0.04036424228186526       664.6528067227244
0.040566577948397485      665.633242187537
0.040768439330593605      666.5829810341411
0.04096998391520435       667.5020232625366
0.04117136993220262       668.3903688727236
0.04137275598532357       669.248017864702
0.04157430067821714       670.0749702384718
0.04177616224060133       670.8712259940332
0.0419784981588055        671.6367851313859
0.04218078754816035       672.385572744491
0.04238260269718259       673.0787560978077
0.04258410104946696       673.7163351913358
0.04278544079179545       674.2983100250752
0.04298678048479618       674.824680599026
0.043188278689213704      675.2954469131884
0.043390093592177985      675.710608967562
0.04359238263785921       676.0701667621472
0.043794623705544454      676.4789249391064
0.04399639111513442       676.8260534781361
0.04419784215819482       677.1115523792365
0.04439913486792596       677.3354216424076
0.044600427650446826      677.4976612676492
0.04480187891170468       677.5982712549614
0.045003646684386715      677.6372516043446
0.04520588825921017       677.614602315798
