% Model:              brazing.mph
% Version:            COMSOL 5.3.0.223
% Date:               Oct 24 2018, 00:25
% Dimension:          1
% Nodes:              161
% Expressions:        1
% Description:        Line graph
% x                       Height
0                         641.9815922341737
1.9693985890610136E-4     641.9547278271485
3.9298030043864816E-4     641.9377810448073
5.884188308682271E-4      641.9307518871502
7.835557095112735E-4      641.9336403541772
9.786925881542028E-4      641.9464464458883
0.0011741311185834375     641.9691701622836
0.0013701715601154056     642.0018115033629
0.0015671114190207022     642.0443704691263
0.0017642608961497635     641.8045754390803
0.0019605081241513326     641.5602737260917
0.0021561515411346144     641.3114653301602
0.002351492352702621      641.0581502512861
0.0025468331642698894     640.8003284894693
0.0027424765812509564     640.5380000447096
0.0029387238092488436     640.2711649170075
0.0031358732863727766     639.9998231063624
0.0033326885608882563     639.6250832677273
0.0035286060983021257     639.2551070542
0.0037239228519497995     638.8898944657813
0.003918938519653848      638.5294455024704
0.004113954187357973      638.1737601642677
0.004309270941005876      637.8228384511732
0.004505188478420127      637.4766803631868
0.004702003752936137      637.1352859003086
0.004899138702461749      636.780385524553
0.005095371599302965      636.4423933500797
0.005291000816927052      636.1213093768888
0.005486327495291825      635.8171336049803
0.005681654173656831      635.5298660343542
0.0058772833912816074     635.2595066650105
0.0060735162881239745     635.006055496949
0.006270651237651189      634.76951253017
0.006467582778148322      634.5877450420993
0.006663615013526554      634.4397250606745
0.006859045413116663      634.3254525858957
0.0070541741987231454     634.244927617763
0.007249302984329781      634.1981501562763
0.007444733383920351      634.1851202014356
0.007640765619299351      634.2058377532408
0.007837697159797551      634.260302811692
0.008034634474091872      634.2583397541242
0.008230672405352359      634.294148593324
0.008426108448549354      634.3677293292914
0.008621242851524007      634.4790819620264
0.008816377254498534      634.6282064915289
0.009011813297695145      634.8151029177989
0.009207851228955002      635.0397712408364
0.00940478854324844       635.3022114606415
0.00960192671152544       635.6246896952814
0.00979816278359587       635.962419820127
0.009993795147248338      636.3154018351788
0.010189124956984269      636.6836357404366
0.010384454766719743      637.0671215359004
0.010580087130370853      637.46585922157
0.010776323202439026      637.8798487974456
0.01097346137071288       638.3090902635272
0.011170281912174305      638.6935249636758
0.011366204645540166      639.0875596010567
0.011561526547508357      639.49119417567
0.011756547339625332      639.9044286875155
0.011951568131742307      640.3272631365934
0.0121468900337105        640.7596975229036
0.012342812767076368      641.2017318464463
0.0125396333085378        641.6533661072211
0.012736771215691979      641.9495441048335
0.012933007030171178      642.2433663135431
0.013128639138602195      642.5348327333503
0.013323968694306592      642.8239433642545
0.013519298250011432      643.1106982062562
0.013714930358443784      643.3950972593551
0.0139111661729252        643.6771405235514
0.014108304080082462      643.9568279988449
0.014305241249097643      643.9533376209823
0.014501279037039759      643.9518659798424
0.014696714938233999      643.952413075425
0.014891849199866372      643.9549789077305
0.015086983461498874      643.9595634767586
0.015282419362693495      643.9661667825094
0.01547845715063625       643.9747888249829
0.015675394319652317      643.985429604179
0.015872325504405583      643.6058230439376
0.01606835738884011       643.2301679656365
0.016263787440706973      642.8584643692751
0.016458915880206496      642.4907122548541
0.016654044319705866      642.1269116223731
0.016849474371572262      641.767062471832
0.017045506256006017      641.4111648032311
0.017242437440758204      641.0592186165702
0.01743957168037589       640.4820142556998
0.017635803876907424      639.8945131383118
0.01783143240066149       639.2967152644062
0.018026758388388308      638.6886206339829
0.01822208437611492       638.0702292470419
0.01841771289986836       637.4415411035832
0.018613945096398854      636.8025562036069
0.018811079336015085      636.1532745471129
0.019007894687321662      635.4672138307992
0.01920381230049143       634.7834415936713
0.019399129129200405      634.1019578357287
0.01959414487161704       633.422762556972
0.01978916061403359       632.7458557574007
0.01998447744274231       632.071237437015
0.020180395055911654      631.398907595815
0.020377210407217645      630.7288662338005
0.020574360469106157      630.1243546212204
0.020770608273960874      629.5416405960674
0.020966252262493188      628.9807241583417
0.021161593642948652      628.441605308043
0.021356935023404883      627.9242840451716
0.021552579011939476      627.4287603697273
0.021748826816797996      626.9550342817104
0.021945976878691802      626.5031057811206
0.022142917141692885      626.155705105197
0.022338957981867254      625.8533924811384
0.022534396907280062      625.5961679089452
0.02272953417907009       625.3840313886171
0.02292467145086023       625.2169829201544
0.02312011037627338       625.0950225035567
0.02331615121644832       625.0181501388242
0.023513091479450195      624.9863658259569
0.023710025135207962      624.9174718388177
0.02390605945730262       624.8989071944455
0.024101491924457957      624.9306718928406
0.024296622768016963      625.0127659340026
0.024491753611575823      625.1451893179317
0.02468718607873073       625.3279420446279
0.024883220400824673      625.5610241140911
0.025080154056581445      625.8444355263214
0.025277299572591536      626.2390600945827
0.025473542893039384      626.6559837345566
0.02566918243840792       627.0952064462432
0.025864519396400307      627.5567282296424
0.026059856354392216      628.0405490847543
0.026255495899759323      628.546669011579
0.026451739220204794      629.0750880101162
0.026648884736211575      629.6258060803661
0.02684569473774919       630.2263231361283
0.027041607073256636      630.8325856315008
0.027236918672681274      631.4445935664838
0.027431929210095855      632.0623469410773
0.027626939747510428      632.6858457552812
0.027822251346935042      633.3150900090956
0.028018163682442445      633.9500797025204
0.028214973683980002      634.5908148355556
0.028412120943583204      635.2030096059635
0.028608365984047285      635.8034200821863
0.02880400723361381       636.392046264224
0.02899934588786498       636.9688881520766
0.02919468454211669       637.5339457457441
0.029390325791684838      638.0872190452263
0.02958657083215161       638.6287080505235
0.029783718091758563      639.1584127616355
0.029980652759780888      639.5149050162586
0.030176688080480362      639.8703701792942
0.030372121537075924      640.2248082507426
0.03056725336547531       640.5782192306035
0.030762385193874833      640.9306031188771
0.030957818650470807      641.2819599155633
0.031153853971170976      641.6322896206622
0.031350788639194264      641.9815922341737
