% Model:              brazing.mph
% Version:            COMSOL 5.3.0.223
% Date:               Oct 24 2018, 03:00
% Dimension:          1
% Nodes:              225
% Expressions:        1
% Description:        Line graph
% x                       Height
0                         661.3271182567129
2.1191841480136804E-4     661.2300208635817
4.2353438892247565E-4     661.092381542263
6.349689892252786E-4      660.9142002927567
8.463435942227858E-4      660.695477115063
0.001057779685752053      660.4362120091821
0.001269398639759412      660.1364049751134
0.001481321517995422      659.7960560128573
0.0017252358262731596     659.3431142574316
0.0019686866163640313     658.8576250291385
0.0022118589563155885     658.3395883279784
0.002454938550168189      657.7890041539512
0.0026981113144448556     657.205872507057
0.0029415629522145732     656.5901933872956
0.0031854785295931678     655.9419667946671
0.0034450106912723537     655.1457727215186
0.0037039863009040125     654.3169309699208
0.003962627412610827      653.4554415398735
0.0042211569424298        652.5613044313767
0.004479798094906585      651.6345196444308
0.004738773785972872      650.675087179035
0.004998306069542035      649.68300703519
0.005274868491808245      648.5214119818241
0.005550758931995686      647.3420825971516
0.0058262454501036105     646.145018881172
0.006101597285810183      644.9302208338856
0.006377084073678616      643.697688455293
0.006652975052596927      642.4474217453931
0.006929538280995558      641.1794207041867
0.007206101510950518      639.8635087602332
0.007481992491406557      638.5654865283024
0.007757479280801014      637.2853540083943
0.00803283111802884       636.0231112005089
0.008308317637660222      634.7787581046466
0.008584208079380276      633.5522947208068
0.008860770503195153      632.3437210489899
0.009120302815147717      631.2091198491986
0.00937927853441616       630.117394623095
0.009637919714987194      629.0685453706792
0.009896449272866283      628.0625720919511
0.010155090412673047      627.0994747869112
0.010414066050518256      626.1792534555584
0.01067359824059789       625.3019080978937
0.010917512776055054      624.5032204236311
0.011160965100129169      623.7578663182678
0.011404139717480647      623.0658457818039
0.01164722176512739       622.4271588142391
0.011890396591516505      621.841805415574
0.012133849333188814      621.3097855858077
0.012377764493855997      620.8310993249411
0.01258968694000722       620.4593128542526
0.012801305803204788      620.1302636972893
0.013012742322906452      619.8439518540506
0.013224118052332232      619.6003773245369
0.01343555464954572       619.3995401087485
0.013647173667633327      619.2414402066845
0.013859096345786744      619.1260776183457
0.014071014760598048      619.0695580081975
0.014282630734729056      619.0550130909575
0.01449406533504172       619.0824428666253
0.014705439940049088      619.1518473352013
0.014916876031588231      619.2632264966857
0.015128494985605482      619.4165803510776
0.015340417863851432      619.6119088983778
0.01558433217214941       619.8574915031187
0.015827782962260412      620.1639224301834
0.016070955302232025      620.5312016795723
0.016314034896104664      620.959329251285
0.0165572076604014        621.4483051453221
0.01680065929819124       621.998129361683
0.01704457487559009       622.6088019003681
0.01730410703726679       623.277004074378
0.017563082646895985      623.9877400688629
0.01782172375860034       624.7410098838221
0.018080253288416847      625.5368135192565
0.01833889444089119       626.3751509751656
0.018597870131955005      627.2560222515493
0.018857402415521692      628.179427348408
0.019133964837753384      629.1693245178827
0.019409855277906563      630.1791308356931
0.019685341795980367      631.2088463018389
0.019960693631652874      632.2584709163203
0.0202361804194872        633.3280046791376
0.020512071398371242      634.4174475902903
0.020788634626735362      635.5267996497787
0.02106519785666259       636.6053032273912
0.021341088837091095      637.6723818078067
0.021616575626458134      638.7280353910246
0.02189192746365859       639.7722639770452
0.022167413983262562      640.8050675658687
0.02244330442495508       641.8264461574946
0.022719866848742224      642.8363997519234
0.022979399160698737      643.682316976059
0.023238374879971102      644.5066279921118
0.023497016060546046      645.3093328000814
0.023755545618429033      646.0904313999681
0.02401418675823971       646.8499237917722
0.024273162396088833      647.5878099754931
0.024532694586172417      648.3040899511311
0.02477660912165014       648.8965109522586
0.02502006144574469       649.4554703210916
0.025263236063116538      649.9809680576305
0.025506318110783622      650.473004161875
0.025749492937193107      650.9315786338257
0.02599294567888585       651.3566914734816
0.026236860839573585      651.7483426808435
0.026448783285734738      652.0324561846696
0.02666040214894219       652.2978503099347
0.026871838668653707      652.5445250566382
0.027083214398089334      652.7724804247805
0.027294650995312687      652.9817164143619
0.027506270013410168      653.1722330253816
0.02771819269157351       653.3440302578404
0.02793011110637494       653.4243141820031
0.028141727080496122      653.4842067331425
0.028353161680798985      653.5237079112587
0.028564536285796558      653.5428177163518
0.028775972377325904      653.541536148422
0.028987591331333325      653.5198632074688
0.029199514209569403      653.4777988934926
0.02944342851784522       653.295200984646
0.02968687930793418       653.0688745926676
0.02993005164788383       652.7988197175573
0.030173131241734534      652.4850363593154
0.0304163040060093        652.127524517942
0.0306597556437771        651.7262841934365
0.030903671221153783      651.2813153857995
0.031163203382828072      650.6451774306232
0.03142217899245488       649.9634008360348
0.03168082010415685       649.2359856020338
0.03193934963397098       648.4629317286206
0.032197990786442934      647.6442392157952
0.03245696647750436       646.7799080635572
0.032716498761068635      645.869938271907
0.03299306118333142       644.7178395534692
0.03326895162351545       643.545141185363
0.03354443814161999       642.3518431675883
0.03381978997732317       641.1379455001453
0.034095276765188226      639.9034481830341
0.03437116774410313       638.6483512162544
0.03464773097249833       637.3726545998063
0.034924294202460265      636.0167665391626
0.03520018518292322       634.6824174428318
0.03547567197232456       633.369607310814
0.035751023809559274      632.0783361431093
0.036026510329197556      630.8086039397177
0.036302400770924524      629.5604107006388
0.03657896319474637       628.3337564258733
0.036838495506703706      627.178524494387
0.03709747122597688       626.0778491563756
0.037356112406552636      625.0317304118392
0.03761464196443644       624.0401682607778
0.03787328310424792       623.1031627031915
0.03813225874209787       622.2207137390799
0.03839179093218227       621.3928213684434
0.03863570546763781       620.6446770583437
0.038879157791710306      619.9627846596196
0.03912233240906017       619.3471441722712
0.03936541445670531       618.7977555962984
0.039608589283092806      618.3146189317016
0.039852042024763494      617.8977341784802
0.04009595718542905       617.5471013366347
0.040307879631580334      617.279432988411
0.04051949849477797       617.0648422492417
0.0407309350144797        616.9033291191266
0.040942310743905544      616.794893598066
0.04115374734111909       616.73953568606
0.04136536635920676       616.737255383108
0.04157728903736024       616.7880526892108
0.04178920745215007       616.8980251128203
0.042000823426259694      617.0594886942438
0.042212258026551035      617.2724434334812
0.04242363263153709       617.5368893305325
0.0426350687230549        617.852826385398
0.042846687677050764      618.2202545980771
0.04305861055527523       618.6391739685703
0.04330252486354604       619.1507186020863
0.043545975653630026      619.7316845567611
0.04378914799357473       620.382071832595
0.044032227587420474      621.1018804295878
0.04427540035169028       621.8911103477398
0.04451885198945311       622.7497615870504
0.044762767566824783      623.6778341475202
0.045022299728516735      624.6968369271868
0.04528127533816108       625.764204187447
0.045539916449880535      626.8799359283008
0.045798445979712124      628.044032149748
0.046057087132201545      629.2564928517892
0.04631606282328052       630.5173180344235
0.046575595106862454      631.8265076976516
0.04685215752913061       633.2180182418078
0.04712804796931999       634.6336755255079
0.04740353448742985       636.0734795487516
0.04767888632313835       637.5374303115389
0.04795437311100872       639.0255278138701
0.048230264089928976      640.5377720557447
0.048506827318329566      642.0741630371631
0.04878339054829114       643.5249743431395
0.049059281528753745      644.9548603852471
0.04933476831815475       646.3638211634855
0.0496101201553891        647.7518566778549
0.04988560667502701       649.1189669283556
0.05016149711675364       650.465151914987
0.050438059540575134      651.7904116377497
0.05069759185254397       652.8569705755925
0.05095656757182859       653.8755308367188
0.05121520875241573       654.8460924211283
0.05147373831031092       655.7686553288215
0.051732379450133786      656.6432195597984
0.05199135508799517       657.4697851140583
0.05225088727809108       658.2483519916019
0.0524948018135407        658.8569881211573
0.052738254137607306      659.4050092489138
0.05298142875495131       659.8924153748708
0.05322451080259058       660.3192064990291
0.0534676856289722        660.6853826213884
0.05371113837063701       660.9909437419483
0.05395505353129665       661.2358898607094
0.05416697597743634       661.3794884426484
0.054378594840622414      661.4795650399411
0.05459003136031263       661.5361196525877
0.05480140708972696       661.549152280588
0.05501284368692898       661.5186629239427
0.0552244627050051        661.4446515826507
0.05543638538314697       661.3271182567129
