% Model:              brazing.mph
% Version:            COMSOL 5.3.0.223
% Date:               Oct 24 2018, 05:37
% Dimension:          1
% Nodes:              225
% Expressions:        1
% Description:        Line graph
% x                       Height
0                         664.1982448397325
2.1191841480136804E-4     664.1041972239416
4.2353438892247565E-4     663.9708873330305
6.349689892252786E-4      663.7983151669987
8.463435942227858E-4      663.5864807258469
0.001057779685752053      663.3353840095749
0.001269398639759412      663.0450250181822
0.001481321517995422      662.7154037516694
0.0017252358262731596     662.2756346368363
0.0019686866163640313     661.8062274759601
0.0022118589563155885     661.3071822690399
0.002454938550168189      660.7784990160762
0.0026981113144448556     660.2201777170692
0.0029415629522145732     659.6322183720183
0.0031854785295931678     659.0146209809241
0.0034450106912723537     658.2426821570773
0.0037039863009040125     657.4404633410732
0.003962627412610827      656.6079645329122
0.0042211569424298        655.7451857325942
0.004479798094906585      654.8521269401193
0.004738773785972872      653.9287881554872
0.004998306069542035      652.9751693786981
0.005274868491808245      651.8439890074592
0.005550758931995686      650.6966829777912
0.0058262454501036105     649.5332512896939
0.006101597285810183      648.3536939431675
0.006377084073678616      647.1580109382124
0.006652975052596927      645.9462022748277
0.006929538280995558      644.7182679530141
0.007206101510950518      643.4358336532459
0.007481992491406557      642.172804826928
0.007757479280801014      640.9291814740602
0.00803283111802884       639.7049635946427
0.008308317637660222      638.5001511886757
0.008584208079380276      637.3147442561585
0.008860770503195153      636.1487427970918
0.009120302815147717      635.049651237786
0.00937927853441616       633.9939065778833
0.009637919714987194      632.981508817384
0.009896449272866283      632.012457956288
0.010155090412673047      631.0867539945955
0.010414066050518256      630.2043969323059
0.01067359824059789       629.36538676942
0.010917512776055054      628.6003049309734
0.011160965100129169      627.8881943137186
0.011404139717480647      627.2290549176556
0.01164722176512739       626.6228867427842
0.011890396591516505      626.0696897891048
0.012133849333188814      625.5694640566168
0.012377764493855997      625.1222095453206
0.01258968694000722       624.778182596649
0.012801305803204788      624.4760692721661
0.013012742322906452      624.2158695718717
0.013224118052332232      623.9975834957661
0.01343555464954572       623.8212110438493
0.013647173667633327      623.6867522161208
0.013859096345786744      623.5942070125811
0.014071014760598048      623.5616405197476
0.014282630734729056      623.5701986384947
0.01449406533504172       623.6198813688226
0.014705439940049088      623.7106887107312
0.014916876031588231      623.8426206642209
0.015128494985605482      624.0156772292912
0.015340417863851432      624.2298584059423
0.01558433217214941       624.4960486146422
0.015827782962260412      624.8224908167092
0.016070955302232025      625.2091850121429
0.016314034896104664      625.6561312009437
0.0165572076604014        626.1633293831118
0.01680065929819124       626.7307795586464
0.01704457487559009       627.3584817275482
0.01730410703726679       628.0415274030842
0.017563082646895985      628.7665299092612
0.01782172375860034       629.5334892460793
0.018080253288416847      630.3424054135386
0.01833889444089119       631.1932784116392
0.018597870131955005      632.0861082403807
0.018857402415521692      633.0208948997634
0.019133964837753384      634.0166703710788
0.019409855277906563      635.0323807522187
0.019685341795980367      636.0680260431832
0.019960693631652874      637.1236062439722
0.0202361804194872        638.1991213545862
0.020512071398371242      639.2945713750242
0.020788634626735362      640.4099563052871
0.02106519785666259       641.4893673618767
0.021341088837091095      642.5578450217993
0.021616575626458134      643.615389285054
0.02189192746365859       644.6620001516416
0.022167413983262562      645.6976776215621
0.02244330442495508       646.7224216948148
0.022719866848742224      647.7362323714003
0.022979399160698737      648.5708002665768
0.023238374879971102      649.3854236354687
0.023497016060546046      650.1801024780752
0.023755545618429033      650.9548367943972
0.02401418675823971       651.7096265844344
0.024273162396088833      652.4444718481865
0.024532694586172417      653.1593725856537
0.02477660912165014       653.7402045867747
0.02502006144574469       654.2876052752482
0.025263236063116538      654.801574651074
0.025506318110783622      655.2821127142522
0.025749492937193107      655.7292194647832
0.02599294567888585       656.1428949026663
0.026236860839573585      656.523139027902
0.026448783285734738      656.7930487753398
0.02666040214894219       657.0473930414387
0.026871838668653707      657.286171826198
0.027083214398089334      657.5093851296184
0.027294650995312687      657.7170329516998
0.027506270013410168      657.9091152924419
0.02771819269157351       658.085632151845
0.02793011110637494       658.1581750916098
0.028141727080496122      658.2139009417729
0.028353161680798985      658.2528097023343
0.028564536285796558      658.2749013732938
0.028775972377325904      658.2801759546517
0.028987591331333325      658.2686334464075
0.029199514209569403      658.2402738485617
0.02944342851784522       658.0699840595659
0.02968687930793418       657.8554587734893
0.02993005164788383       657.5966979903319
0.030173131241734534      657.2937017100937
0.0304163040060093        656.9464699327752
0.0306597556437771        656.5550026583755
0.030903671221153783      656.1192998868954
0.031163203382828072      655.481829458263
0.03142217899245488       654.7988250059676
0.03168082010415685       654.0702865300094
0.03193934963397098       653.2962140303882
0.032197990786442934      652.4766075071045
0.03245696647750436       651.6114669601574
0.032716498761068635      650.7007923895477
0.03299306118333142       649.5360170357499
0.03326895162351545       648.3507341431222
0.03354443814161999       647.1449437116644
0.03381978997732317       645.9186457413765
0.034095276765188226      644.6718402322591
0.03437116774410313       643.4045271843113
0.03464773097249833       642.1167065975338
0.034924294202460265      640.7396814348708
0.03520018518292322       639.3853473948392
0.03547567197232456       638.0537044774388
0.035751023809559274      636.7447526826697
0.036026510329197556      635.4584920105323
0.036302400770924524      634.1949224610257
0.03657896319474637       632.9540440341507
0.036838495506703706      631.7797243085064
0.03709747122597688       630.6605529598829
0.037356112406552636      629.5965299882799
0.03761464196443644       628.5876553936978
0.03787328310424792       627.6339291761366
0.03813225874209787       626.7353513355957
0.03839179093218227       625.8919218720758
0.03863570546763781       625.1259208114533
0.038879157791710306      624.4258974001348
0.03912233240906017       623.7918516381199
0.03936541445670531       623.2237835254089
0.039608589283092806      622.7216930620019
0.039852042024763494      622.2855802478986
0.04009595718542905       621.9154450830991
0.040307879631580334      621.6304673615855
0.04051949849477797       621.3978668062322
0.0407309350144797        621.217643417039
0.040942310743905544      621.0897971940062
0.04115374734111909       621.0143281371342
0.04136536635920676       620.991236246422
0.04157728903736024       621.0205215218704
0.04178920745215007       621.1094201904157
0.042000823426259694      621.2492122349577
0.042212258026551035      621.4398976554961
0.04242363263153709       621.6814764520315
0.0426350687230549        621.9739486245637
0.042846687677050764      622.3173141730922
0.04305861055527523       622.7115730976176
0.04330252486354604       623.1927190103252
0.043545975653630026      623.7434794934064
0.04378914799357473       624.3638545468613
0.044032227587420474      625.0538441706898
0.04427540035169028       625.8134483648923
0.04451885198945311       626.6426671294682
0.044762767566824783      627.541500464418
0.045022299728516735      628.5272984951754
0.04528127533816108       629.5616412456367
0.045539916449880535      630.6445287158018
0.045798445979712124      631.775960905671
0.046057087132201545      632.9559378152443
0.04631606282328052       634.1844594445212
0.046575595106862454      635.4615257935022
0.04685215752913061       636.8162374033884
0.04712804796931999       638.1966277646408
0.04740353448742985       639.6026968772591
0.04767888632313835       641.0344447412434
0.04795437311100872       642.4918713565942
0.048230264089928976      643.9749767233108
0.048506827318329566      645.4837608413935
0.04878339054829114       646.9078864785852
0.049059281528753745      648.3127536180885
0.04933476831815475       649.6983622599032
0.0496101201553891        651.0647124040294
0.04988560667502701       652.4118040504673
0.05016149711675364       653.7396371992162
0.050438059540575134      655.0482118502769
0.05069759185254397       656.0871879993102
0.05095656757182859       657.0798810654352
0.05121520875241573       658.0262910486516
0.05147373831031092       658.9264179489595
0.051732379450133786      659.7802617663592
0.05199135508799517       660.58782250085
0.05225088727809108       661.3491001524326
0.0524948018135407        661.9354991080525
0.052738254137607306      662.4618062760544
0.05298142875495131       662.9280216564387
0.05322451080259058       663.3341452492052
0.0534676856289722        663.6801770543543
0.05371113837063701       663.9661170718853
0.05395505353129665       664.1919653017987
0.05416697597743634       664.3170030046508
0.054378594840622414      664.4006604988348
0.05459003136031263       664.4429377843506
0.05480140708972696       664.4438348611983
0.05501284368692898       664.4033517293781
0.0552244627050051        664.3214883888892
0.05543638538314697       664.1982448397325
