% Model:              brazing.mph
% Version:            COMSOL 5.3.0.223
% Date:               Oct 24 2018, 05:53
% Dimension:          1
% Nodes:              225
% Expressions:        1
% Description:        Line graph
% x                       Height
0                         719.7319775457493
2.02242572596226E-4       719.7117023806052
4.040113375593453E-4      719.6170594843993
6.054635867748898E-4      719.4480488571317
8.067573541103817E-4      719.2046704988023
0.0010080510467017985     718.8869244094112
0.001209503071861434      718.4948105889584
0.0014112714639836859     718.0283290374439
0.001613513515825394      717.4874797548675
0.001815803045808458      717.0128298899832
0.0020176184164428694     716.4836491043575
0.0022191170764546647     715.8999373979902
0.0024204572175778446     715.2616947708816
0.00262179740518867       714.5689212230316
0.002823296204553664      713.8216167544399
0.0030251118070788686     713.0197813651071
0.003227401660948015      712.1634150550324
0.0034297372965816655     711.3386286805969
0.003631598594156443      710.4693743975137
0.0038331430353414214     709.555652205783
0.004034528845142556      708.5974621054046
0.004235914622467191      707.5948040963787
0.004437458966299354      706.5476781787048
0.004639320101874085      705.4560843523835
0.004841655511239337      704.3200226174147
0.005043918276497792      703.2988671764048
0.005245706959792293      702.2615528037953
0.0054471789681153834     701.2080794995863
0.00564849245128538       700.138447263778
0.005849805932728159      699.05265609637
0.006051277935873691      697.9507059973625
0.00625306661055245       696.8325969667554
0.006455329363777148      695.6983290045489
0.0066576887471433525     694.6027621829604
0.0068595736811967985     693.5276661220653
0.007061141707903535      692.4730408218635
0.007262551112883539      691.4388862823552
0.007463960555734714      690.42520250354
0.007665528695965537      689.4319894854184
0.00786741381892875       688.4592472279901
0.0080697734661485        687.5069757312552
0.008272395437950266      686.6555310368954
0.008474540847339949      685.8280755809401
0.008676367906616744      685.0246093633896
0.008878035577337231      684.2451323842438
0.009079703197965442      683.4896446435027
0.009281530107084053      682.7581461411663
0.00948367526660416       682.0506368772349
0.009686296889411194      681.3671168517078
0.009888748367913874      680.9372811747932
0.010090724718905934      680.5494352487832
0.010292383720552634      680.2035790736779
0.010493883896490891      679.8997126494772
0.010695384145210549      679.6378359761813
0.010897043365029401      679.41794905379
0.011099020079070253      679.2400518823035
0.011301472064648224      679.1041444617215
0.011503924099142101      679.0953545379995
0.011705900863193036      679.1302057411649
0.011907560133099505      679.2086980712179
0.012109060430962503      679.3308315281583
0.012310560654077738      679.4966061119864
0.012512219699917606      679.7060218227019
0.012714196091111104      679.959078660305
0.012916647604829811      680.2557766247955
0.013119269382981878      680.7364470795171
0.013321414683399362      681.2521628466286
0.013523241722808088      681.8029239261301
0.013724909467002238      682.3887303180214
0.013926577258472442      683.0095820223027
0.014128404439597363      683.6654790389738
0.014330549975836581      684.3564213680348
0.01453317208336263       685.082409009486
0.014735531766219815      685.8960014847013
0.014937416940401616      686.7224015671059
0.015138985143475461      687.5616092567
0.015340394656791169      688.4136245534835
0.015541804135826716      689.2784474574564
0.015743372236141022      690.1560779686187
0.015945257239325793      691.0465160869703
0.01614761668334845       691.9497618125114
0.01634987940592303       693.0032729180947
0.016551668047823844      694.0406711207646
0.016753140015983766      695.0619564205209
0.0169544534601584        696.0671288173639
0.017155766903708087      697.0561883112933
0.017357238869994664      698.0291349023095
0.017559027508778132      698.985968590412
0.01776129022699866       699.926689375601
0.017963625484858744      700.9045713490443
0.018165486461237414      701.8542665164682
0.018367030641941378      702.7757748778728
0.018568416255992027      703.6690964332578
0.018769801906169285      704.5342311826233
0.018971346195167795      705.3711791259694
0.019173207351754082      706.1799402632961
0.019375542861313405      706.9605145946034
0.019577832661189145      707.7787563196347
0.019779648217873542      708.5350061410512
0.019981146975907166      709.2292640588529
0.020182487123025287      709.8615300730396
0.020383827220813066      710.4318041836115
0.020585325830972126      710.9400863905687
0.020787141141585735      711.3863766939108
0.020989430597769934      711.7706750936383
0.021191672662378012      712.3041139111319
0.021393441061935803      712.7636383715076
0.02159489309031221       713.1492484747652
0.021796186783028852      713.4609442209045
0.021997480548535182      713.6987256099259
0.022198932795108938      713.862592641829
0.022400701557758636      713.9525453166142
0.02260294412950465       713.9685836342811
0.02280539620920995       714.0502200052848
0.023007373018156245      714.0552779127697
0.02320903233274668       713.983757356736
0.023410532675187733      713.8356583371835
0.023612032942881025      713.6109808541123
0.023813692033404853      713.3097249075225
0.024015668469493705      712.9318904974139
0.024218120028423832      712.4774776237865
0.024420742013481003      712.0605078525448
0.02462288751935683       711.5810461254135
0.02482471476325633       711.039092442393
0.02502638271145666       710.434646803483
0.025228050706933344      709.7677092086836
0.025429878092549915      709.0382796579948
0.025632023834248962      708.2463581514168
0.025834646148682177      707.3919446889491
0.026037006051731277      706.541443235451
0.026238891444565628      705.6434057711024
0.02644045986526205       704.6978322959031
0.026641869595683754      703.7047228098534
0.02684327929182417       702.6640773129532
0.027044847609757647      701.5758958052022
0.02724673283158932       700.4401782866007
0.027449092495796006      699.2569247571488
0.02765135518998453       698.122438351751
0.027853143803698084      696.9762297639853
0.028054615743803996      695.8182989938516
0.028255929159991804      694.64864604135
0.028457242575555555      693.4672709064806
0.028658714513790734      692.274173589243
0.028860503124391312      691.0693540896376
0.029062765814231884      689.8528124076644
0.029265100752448706      688.6453388243625
0.02946696141141544       687.4665796538155
0.029668505276199596      686.3165348960234
0.029869890575077548      685.1952045509862
0.03007127591008127       684.1025886187037
0.030272819883157453      683.0386870991763
0.03047468072232762       682.0034999924037
0.030677015912237836      680.9970272983859
0.030879305594778746      680.0846907268807
0.03108112103494649       679.2130280186116
0.031282619677010744      678.3820391735787
0.03148395970843373       677.5917241917819
0.0316852996905265        676.8420830732213
0.031886798184716555      676.1331158178965
0.032088613378814135      675.4648224258082
0.03229090271766436       674.8372028969559
0.03249314477533616       674.4345401666806
0.03269491316800606       674.0922147377972
0.03289636518952694       673.8102266103061
0.03309765887540427       673.5885757842073
0.033298952634071295      673.4272622595004
0.033500404873789524      673.3262860361858
0.03370217362955133       673.2856471142632
0.03390441619436107       673.3053454937327
0.03410686840969767       673.4518322482465
0.03430884535332711       673.6591802271402
0.0345105048019665        673.9273894304133
0.034712005278138794      674.2564598580664
0.03491350567956333       674.6463915100992
0.03511516490413611       675.0971843865117
0.035317141474908095      675.608838487304
0.03551959316946952       676.181353812476
0.035722216260139425      676.9255303497331
0.03592436286389621       677.7159688157855
0.036126191200505704      678.5526692106332
0.03632786023882611       679.4356315342761
0.03652952932442421       680.3648557867144
0.036731357802754806      681.340341967948
0.03693350464234149       682.3620900779769
0.03713612806239678       683.4301001168009
0.03733848789969145       684.5748561325966
0.037540373227224554      685.7409581554691
0.03774194158292153       686.9284061854186
0.03794335124849304       688.1372002224449
0.03814476087977932       689.3673402665481
0.03834632913270157       690.6188263177282
0.03854821428921239       691.8916583759851
0.038750573887637245      693.185836441319
0.03895283596123875       694.5668955994682
0.039154623958694366      695.930407860587
0.039356095285438375      697.2763732246754
0.03955740808971597       698.6047916917333
0.03975872089337115       699.9156632617606
0.03996019221824938       701.2089879347577
0.04016198021260023       702.4847657107242
0.04036424228186526       703.7429965896604
0.040566577948397485      704.9870753683736
0.040768439330593605      706.1897483124584
0.04096998391520435       707.3510154219148
0.04117136993220262       708.4708766967427
0.04137275598532357       709.5493321369423
0.04157430067821714       710.5863817425133
0.04177616224060133       711.582025513456
0.0419784981588055        712.5362634497702
0.04218078754816035       713.4829019091359
0.04238260269718259       714.3538862877277
0.04258410104946696       715.1492165855461
0.04278544079179545       715.8688928025908
0.04298678048479618       716.512914938862
0.043188278689213704      717.0812829943594
0.043390093592177985      717.573996969083
0.04359238263785921       717.9910568630334
0.043794623705544454      718.4920858729145
0.04399639111513442       718.9121394757838
0.04419784215819482       719.2512176716411
0.04439913486792596       719.5093204604866
0.044600427650446826      719.68644784232
0.04480187891170468       719.7825998171418
0.045003646684386715      719.7977763849514
0.04520588825921017       719.7319775457493
