% Model:              brazing.mph
% Version:            COMSOL 5.3.0.223
% Date:               Oct 24 2018, 01:33
% Dimension:          1
% Nodes:              161
% Expressions:        1
% Description:        Line graph
% x                       Height
0                         636.4829915619654
1.9693985890610136E-4     636.4556062116081
3.9298030043864816E-4     636.4376742653565
5.884188308682271E-4      636.4291957232106
7.835557095112735E-4      636.4301705851702
9.786925881542028E-4      636.4405988512356
0.0011741311185834375     636.4604805214066
0.0013701715601154056     636.4898155956832
0.0015671114190207022     636.5286040740656
0.0017642608961497635     636.2906062660304
0.0019605081241513326     636.0500082090996
0.0021561515411346144     635.8068099032727
0.002351492352702621      635.5610113485501
0.0025468331642698894     635.3126125449317
0.0027424765812509564     635.0616134924172
0.0029387238092488436     634.808014191007
0.0031358732863727766     634.551814640701
0.0033326885608882563     634.1853109918288
0.0035286060983021257     633.825060356938
0.0037239228519497995     633.4710627360286
0.003918938519653848      633.1233181291004
0.004113954187357973      632.7818265361536
0.004309270941005876      632.4465879571883
0.004505188478420127      632.1176023922042
0.004702003752936137      631.7948698412015
0.004899138702461749      631.4491814546693
0.005095371599302965      631.1210645667454
0.005291000816927052      630.8105191774292
0.005486327495291825      630.5175452867212
0.005681654173656831      630.2421428946211
0.0058772833912816074     629.984312001129
0.0060735162881239745     629.7440526062447
0.006270651237651189      629.5213647099686
0.006467582778148322      629.3427913299304
0.006663615013526554      629.1971221528146
0.006859045413116663      629.0843571786214
0.0070541741987231454     629.0044964073509
0.007249302984329781      628.9575398390028
0.007444733383920351      628.9434874735774
0.007640765619299351      628.9623393110745
0.007837697159797551      629.0140953514942
0.008034634474091872      629.0140360263464
0.008230672405352359      629.0504316752919
0.008426108448549354      629.1232822983303
0.008621242851524007      629.2325878954621
0.008816377254498534      629.3783484666869
0.009011813297695145      629.5605640120049
0.009207851228955002      629.779234531416
0.00940478854324844       630.0343600249204
0.00960192671152544       630.3384912061927
0.00979816278359587       630.6587226824889
0.009993795147248338      630.9950544538088
0.010189124956984269      631.3474865201528
0.010384454766719743      631.7160188815205
0.010580087130370853      632.1006515379123
0.010776323202439026      632.5013844893277
0.01097346137071288       632.9182177357671
0.011170281912174305      633.2836255008435
0.011366204645540166      633.65977222008
0.011561526547508357      634.0466578934764
0.011756547339625332      634.4442825210332
0.011951568131742307      634.8526461027501
0.0121468900337105        635.2717486386272
0.012342812767076368      635.7015901286643
0.0125396333085378        636.1421705728616
0.012736771215691979      636.4213066296994
0.012933007030171178      636.7003503682733
0.013128639138602195      636.9793017885833
0.013323968694306592      637.2581608906291
0.013519298250011432      637.536927674411
0.013714930358443784      637.8156021399291
0.0139111661729252        638.094184287183
0.014108304080082462      638.372674116173
0.014305241249097643      638.3683714609944
0.014501279037039759      638.366655361
0.014696714938233999      638.36752581619
0.014891849199866372      638.3709828265642
0.015086983461498874      638.3770263921226
0.015282419362693495      638.3856565128656
0.01547845715063625       638.3968731887927
0.015675394319652317      638.4106764199041
0.015872325504405583      638.0526333759768
0.01606835738884011       637.6983918120568
0.016263787440706973      637.347951728144
0.016458915880206496      637.0013131242384
0.016654044319705866      636.65847600034
0.016849474371572262      636.3194403564488
0.017045506256006017      635.9842061925648
0.017242437440758204      635.6527735086879
0.01743957168037589       635.1010945698945
0.017635803876907424      634.5408131945113
0.01783143240066149       633.9719293825386
0.018026758388388308      633.3944431339763
0.01822208437611492       632.8083544488243
0.01841771289986836       632.2136633270828
0.018613945096398854      631.6103697687515
0.018811079336015085      630.9984737738307
0.019007894687321662      630.3427450234796
0.01920381230049143       629.6902189373737
0.019399129129200405      629.0408955155131
0.01959414487161704       628.3947747578976
0.01978916061403359       627.7518566645274
0.01998447744274231       627.1121412354026
0.020180395055911654      626.475628470523
0.020377210407217645      625.8423183698887
0.020574360469106157      625.2643361691531
0.020770608273960874      624.7080072425961
0.020966252262493188      624.1733315902178
0.021161593642948652      623.6603092120181
0.021356935023404883      623.1689401079971
0.021552579011939476      622.6992242781547
0.021748826816797996      622.251161722491
0.021945976878691802      621.8247524410059
0.022142917141692885      621.4914538793209
0.022338957981867254      621.2013673903253
0.022534396907280062      620.954492974019
0.02272953417907009       620.7508306304018
0.02292467145086023       620.5903803594739
0.02312011037627338       620.4731421612352
0.02331615121644832       620.3991160356858
0.023513091479450195      620.3683019828256
0.023710025135207962      620.3038606306807
0.02390605945730262       620.2873699514608
0.024101491924457957      620.3188299451663
0.024296622768016963      620.3982406117971
0.024491753611575823      620.5256019513531
0.02468718607873073       620.7009139638344
0.024883220400824673      620.924176649241
0.025080154056581445      621.1953900075728
0.025277299572591536      621.5664472213723
0.025473542893039384      621.9596656909561
0.02566918243840792       622.3750454163238
0.025864519396400307      622.8125863974757
0.026059856354392216      623.2722886344116
0.026255495899759323      623.7541521271314
0.026451739220204794      624.2581768756355
0.026648884736211575      624.7843628799235
0.02684569473774919       625.3521813516088
0.027041607073256636      625.9262688826526
0.027236918672681274      626.5066254730548
0.027431929210095855      627.0932511228154
0.027626939747510428      627.6861458319345
0.027822251346935042      628.285309600412
0.028018163682442445      628.8907424282479
0.028214973683980002      629.5024443154422
0.028412120943583204      630.0784459156778
0.028608365984047285      630.6446256640189
0.02880400723361381       631.2009835604654
0.02899934588786498       631.7475196050174
0.02919468454211669       632.2842337976747
0.029390325791684838      632.8111261384375
0.02958657083215161       633.3281966273058
0.029783718091758563      633.8354452642794
0.029980652759780888      634.1687676421463
0.030176688080480362      634.5014102798258
0.030372121537075924      634.8333731773178
0.03056725336547531       635.1646563346222
0.030762385193874833      635.4952597517392
0.030957818650470807      635.8251834286688
0.031153853971170976      636.1544273654108
0.031350788639194264      636.4829915619654
