% Model:              brazing.mph
% Version:            COMSOL 5.3.0.223
% Date:               Oct 24 2018, 03:59
% Dimension:          1
% Nodes:              225
% Expressions:        1
% Description:        Line graph
% x                       Height
0                         661.5919438084271
2.1191841480136804E-4     661.5003927638589
4.2353438892247565E-4     661.3690760218201
6.349689892252786E-4      661.1979935823101
8.463435942227858E-4      660.9871454453294
0.001057779685752053      660.7365316108782
0.001269398639759412      660.4461520789556
0.001481321517995422      660.1160068495625
0.0017252358262731596     659.6756872940975
0.0019686866163640313     659.2033718604871
0.0022118589563155885     658.6990605487313
0.002454938550168189      658.1627533588298
0.0026981113144448556     657.594450290783
0.0029415629522145732     656.9941513445905
0.0031854785295931678     656.3618565202527
0.0034450106912723537     655.585857687203
0.0037039863009040125     654.7772674945289
0.003962627412610827      653.9360859422308
0.0042211569424298        653.0623130303086
0.004479798094906585      652.1559487587624
0.004738773785972872      651.2169931275918
0.004998306069542035      650.2454461367971
0.005274868491808245      649.1123335308365
0.005550758931995686      647.9613330373181
0.0058262454501036105     646.7924446562423
0.006101597285810183      645.6056683876091
0.006377084073678616      644.4010042314184
0.006652975052596927      643.1784521876697
0.006929538280995558      641.9380122563638
0.007206101510950518      640.6550281884233
0.007481992491406557      639.3892503925166
0.007757479280801014      638.1406788686436
0.00803283111802884       636.9093136168044
0.008308317637660222      635.6951546369994
0.008584208079380276      634.4982019292278
0.008860770503195153      633.3184554934901
0.009120302815147717      632.2122990600698
0.00937927853441616       631.1478257905482
0.009637919714987194      630.125035684925
0.009896449272866283      629.1439287432007
0.010155090412673047      628.2045049653752
0.010414066050518256      627.3067643514481
0.01067359824059789       626.4507069014198
0.010917512776055054      625.6711454005068
0.011160965100129169      624.9436769378021
0.011404139717480647      624.2683015133056
0.01164722176512739       623.6450191270171
0.011890396591516505      623.0738297789371
0.012133849333188814      622.554733469065
0.012377764493855997      622.0877301974012
0.01258968694000722       621.7248260179001
0.012801305803204788      621.4035245458285
0.013012742322906452      621.1238257811867
0.013224118052332232      620.8857297239746
0.01343555464954572       620.6892363741925
0.013647173667633327      620.5343457318398
0.013859096345786744      620.4210577969171
0.014071014760598048      620.3658313932043
0.014282630734729056      620.3513787871597
0.01449406533504172       620.377699978783
0.014705439940049088      620.4447949680743
0.014916876031588231      620.5526637550342
0.015128494985605482      620.7013063396618
0.015340417863851432      620.8907227219576
0.01558433217214941       621.1270066349924
0.015827782962260412      621.423190818082
0.016070955302232025      621.7792752712264
0.016314034896104664      622.1952599944256
0.0165572076604014        622.6711449876799
0.01680065929819124       623.2069302509885
0.01704457487559009       623.8026157843523
0.01730410703726679       624.4537779166219
0.017563082646895985      625.1460165151243
0.01782172375860034       625.8793315798597
0.018080253288416847      626.6537231108277
0.01833889444089119       627.469191108029
0.018597870131955005      628.3257355714629
0.018857402415521692      629.2233565011297
0.019133964837753384      630.1893575763452
0.019409855277906563      631.174155434217
0.019685341795980367      632.1777500747451
0.019960693631652874      633.2001414979296
0.0202361804194872        634.2413297037707
0.020512071398371242      635.3013146922677
0.020788634626735362      636.3800964634214
0.02106519785666259       637.4361677421203
0.021341088837091095      638.4802676490709
0.021616575626458134      639.512396184273
0.02189192746365859       640.5325533477269
0.022167413983262562      641.5407391394326
0.02244330442495508       642.5369535593895
0.022719866848742224      643.5211966075984
0.022979399160698737      644.3506942457325
0.023238374879971102      645.1577373872386
0.023497016060546046      645.9423260321166
0.023755545618429033      646.7044601803666
0.02401418675823971       647.444139831989
0.024273162396088833      648.1613649869829
0.024532694586172417      648.856135645349
0.02477660912165014       649.435165062686
0.02502006144574469       649.9809505321423
0.025263236063116538      650.493492053718
0.025506318110783622      650.9727896274131
0.025749492937193107      651.4188432532279
0.02599294567888585       651.8316529311617
0.026236860839573585      652.2112186612152
0.026448783285734738      652.4874589813337
0.02666040214894219       652.7449177206572
0.026871838668653707      652.9835948791854
0.027083214398089334      653.2034904569186
0.027294650995312687      653.404604453857
0.027506270013410168      653.5869368699999
0.02771819269157351       653.7504877053481
0.02793011110637494       653.8262876481537
0.028141727080496122      653.8818481422595
0.028353161680798985      653.9171691876653
0.028564536285796558      653.9322507843716
0.028775972377325904      653.9270929323784
0.028987591331333325      653.9016956316851
0.029199514209569403      653.8560588822922
0.02944342851784522       653.6725197765498
0.02968687930793418       653.4468626740105
0.02993005164788383       653.179087574674
0.030173131241734534      652.8691944785403
0.0304163040060093        652.51718338561
0.0306597556437771        652.1230542958822
0.030903671221153783      651.6868072093574
0.031163203382828072      651.0652027076999
0.03142217899245488       650.3985615990515
0.03168082010415685       649.6868838834118
0.03193934963397098       648.9301695607812
0.032197990786442934      648.1284186311601
0.03245696647750436       647.2816310945474
0.032716498761068635      646.389806950944
0.03299306118333142       645.2672276877578
0.03326895162351545       644.1237129291235
0.03354443814161999       642.959262675041
0.03381978997732317       641.7738769255105
0.034095276765188226      640.5675556805321
0.03437116774410313       639.3402989401054
0.03464773097249833       638.0921067042307
0.034924294202460265      636.7757425170224
0.03520018518292322       635.4793987234724
0.03547567197232456       634.2030753235805
0.035751023809559274      632.9467723173467
0.036026510329197556      631.7104897047714
0.036302400770924524      630.4942274858537
0.03657896319474637       629.2979856605945
0.036838495506703706      628.1755377699434
0.03709747122597688       627.1060131851277
0.037356112406552636      626.0894119061472
0.03761464196443644       625.1257339330018
0.03787328310424792       624.214979265692
0.03813225874209787       623.357147904217
0.03839179093218227       622.5522398485775
0.03863570546763781       621.8249000210964
0.038879157791710306      621.1622847609324
0.03912233240906017       620.5643940680853
0.03936541445670531       620.0312279425552
0.039608589283092806      619.5627863843425
0.039852042024763494      619.1590693934465
0.04009595718542905       618.8200769698678
0.040307879631580334      618.5608154517417
0.04051949849477797       618.3532349405212
0.0407309350144797        618.197335436206
0.040942310743905544      618.0931169387966
0.04115374734111909       618.040579448293
0.04136536635920676       618.0397229646945
0.04157728903736024       618.0905474880019
0.04178920745215007       618.1991304955876
0.042000823426259694      618.3578054436186
0.042212258026551035      618.5665723320947
0.04242363263153709       618.8254311610158
0.0426350687230549        619.1343819303822
0.042846687677050764      619.4934246401934
0.04305861055527523       619.9025592904501
0.04330252486354604       620.4000145872857
0.043545975653630026      620.9655555539437
0.04378914799357473       621.5991821904239
0.044032227587420474      622.3008944967266
0.04427540035169028       623.0706924728519
0.04451885198945311       623.9085761187993
0.044762767566824783      624.8145454345691
0.045022299728516735      625.8087770166168
0.04528127533816108       626.849577052047
0.045539916449880535      627.9369455408596
0.045798445979712124      629.0708824830546
0.046057087132201545      630.2513878786325
0.04631606282328052       631.4784617275924
0.046575595106862454      632.7521040299349
0.04685215752913061       634.1104306124008
0.04712804796931999       635.4914422938253
0.04740353448742985       636.8951390742085
0.04767888632313835       638.3215209535506
0.04795437311100872       639.7705879318514
0.048230264089928976      641.2423400091106
0.048506827318329566      642.7367771853288
0.04878339054829114       644.1565286512135
0.049059281528753745      645.5551395310027
0.04933476831815475       646.9326098246964
0.0496101201553891        648.2889395322944
0.04988560667502701       649.6241286537972
0.05016149711675364       650.9381771892041
0.050438059540575134      652.2310851385157
0.05069759185254397       653.2757021582942
0.05095656757182859       654.273252190065
0.05121520875241573       655.2237352338282
0.05147373831031092       656.1271512895837
0.051732379450133786      656.9835003573319
0.05199135508799517       657.792782437072
0.05225088727809108       658.5549975288046
0.0524948018135407        659.1521395598135
0.052738254137607306      659.6900653179188
0.05298142875495131       660.1687748031203
0.05322451080259058       660.5882680154185
0.0534676856289722        660.9485449548135
0.05371113837063701       661.2496056213047
0.05395505353129665       661.4914500148925
0.05416697597743634       661.6335539761108
0.054378594840622414      661.7330753689963
0.05459003136031263       661.7900141935485
0.05480140708972696       661.8043704497677
0.05501284368692898       661.7761441376541
0.0552244627050051        661.705335257207
0.05543638538314697       661.5919438084271
