% Model:              brazing.mph
% Version:            COMSOL 5.3.0.223
% Date:               Oct 24 2018, 02:03
% Dimension:          1
% Nodes:              225
% Expressions:        1
% Description:        Line graph
% x                       Height
0                         683.5786867451608
2.02242572596226E-4       683.5664649573715
4.040113375593453E-4      683.4890638212604
6.054635867748898E-4      683.3464833368273
8.067573541103817E-4      683.1387235040725
0.0010080510467017985     682.8657843229958
0.001209503071861434      682.5276657935971
0.0014112714639836859     682.1243679158765
0.001613513515825394      681.6558906898342
0.001815803045808458      681.2394220987612
0.0020176184164428694     680.7749882155197
0.0022191170764546647     680.2625890401093
0.0024204572175778446     679.7022245725306
0.00262179740518867       679.0938948127831
0.002823296204553664      678.437599760867
0.0030251118070788686     677.7333394167821
0.003227401660948015      676.9811137805287
0.0034297372965816655     676.252428160178
0.003631598594156443      675.4854443370148
0.0038331430353414214     674.6801623110387
0.004034528845142556      673.83658208225
0.004235914622467191      672.9547036506484
0.004437458966299354      672.0345270162343
0.004639320101874085      671.0760521790077
0.004841655511239337      670.0792791389681
0.005043918276497792      669.1731531554498
0.005245706959792293      668.2541101518906
0.0054471789681153834     667.3221501282906
0.00564849245128538       666.3772730846498
0.005849805932728159      665.4194790209682
0.006051277935873691      664.4487679372456
0.00625306661055245       663.4651398334826
0.006455329363777148      662.4685947096783
0.0066576887471433525     661.5034524979116
0.0068595736811967985     660.5569883261923
0.007061141707903535      659.6292021945205
0.007262551112883539      658.7200941028964
0.007463960555734714      657.8296640513198
0.007665528695965537      656.9579120397906
0.00786741381892875       656.1048380683092
0.0080697734661485        655.2704421368751
0.008272395437950266      654.5210238035367
0.008474540847339949      653.7943248068781
0.008676367906616744      653.0903451468994
0.008878035577337231      652.4090848236006
0.009079703197965442      651.7505438369815
0.009281530107084053      651.1147221870422
0.00948367526660416       650.5016198737828
0.009686296889411194      649.9112368972033
0.009888748367913874      649.5359348729191
0.010090724718905934      649.1991191068587
0.010292383720552634      648.9007895990217
0.010493883896490891      648.6409463494081
0.010695384145210549      648.419589358018
0.010897043365029401      648.2367186248515
0.011099020079070253      648.0923341499085
0.011301472064648224      647.986435933189
0.011503924099142101      647.9880816188202
0.011705900863193036      648.0294862241362
0.011907560133099505      648.1106497491372
0.012109060430962503      648.231572193823
0.012310560654077738      648.3922535581937
0.012512219699917606      648.5926938422493
0.012714196091111104      648.8328930459899
0.012916647604829811      649.1128511694154
0.013119269382981878      649.5500044410336
0.013321414683399362      650.0188864172761
0.013523241722808088      650.519497098143
0.013724909467002238      651.0518364836344
0.013926577258472442      651.61590457375
0.014128404439597363      652.2117013684899
0.014330549975836581      652.8392268678543
0.01453317208336263       653.498481071843
0.014735531766219815      654.2306747792945
0.014937416940401616      654.9752703009456
0.015138985143475461      655.732267636796
0.015340394656791169      656.501666786846
0.015541804135826716      657.2834677510956
0.015743372236141022      658.0776705295447
0.015945257239325793      658.884275122193
0.01614761668334845       659.7032815290411
0.01634987940592303       660.6452581653236
0.016551668047823844      661.5737675465537
0.016753140015983766      662.4888096727311
0.0169544534601584        663.390384543856
0.017155766903708087      664.2784921599285
0.017357238869994664      665.1531325209482
0.017559027508778132      666.0143056269156
0.01776129022699866       666.8620114778304
0.017963625484858744      667.7390452336724
0.018165486461237414      668.5909132415409
0.018367030641941378      669.4176155014358
0.018568416255992027      670.2191520133571
0.018769801906169285      670.9955227773049
0.018971346195167795      671.7467277932792
0.019173207351754082      672.4727670612798
0.019375542861313405      673.1736405813068
0.019577832661189145      673.8990455530935
0.019779648217873542      674.5706014599816
0.019981146975907166      675.188308301971
0.020182487123025287      675.7521660790616
0.020383827220813066      676.2621747912535
0.020585325830972126      676.7183344385467
0.020787141141585735      677.1206450209413
0.020989430597769934      677.4691065384371
0.021191672662378012      677.9323227465346
0.021393441061935803      678.3302888103151
0.02159489309031221       678.6630047297788
0.021796186783028852      678.9304705049252
0.021997480548535182      679.1326861357547
0.022198932795108938      679.2696516222671
0.022400701557758636      679.3413669644626
0.02260294412950465       679.3478321623412
0.02280539620920995       679.4047440512187
0.023007373018156245      679.3940523946001
0.02320903233274668       679.3157571924856
0.023410532675187733      679.1698584448751
0.023612032942881025      678.9563561517687
0.023813692033404853      678.6752503131663
0.024015668469493705      678.3265409290677
0.024218120028423832      677.9102279994734
0.024420742013481003      677.520171260221
0.02462288751935683       677.0749583048068
0.02482471476325633       676.5745891332309
0.02502638271145666       676.0190637454932
0.025228050706933344      675.4083821415937
0.025429878092549915      674.7425443215323
0.025632023834248962      674.0215502853092
0.025834646148682177      673.2454000329244
0.026037006051731277      672.468126657746
0.026238891444565628      671.6493121645484
0.02644045986526205       670.7889565533317
0.026641869595683754      669.8870598240958
0.02684327929182417       668.9436219768405
0.027044847609757647      667.9586430115664
0.02724673283158932       666.9321229282729
0.027449092495796006      665.8640617269602
0.02765135518998453       664.8301191909022
0.027853143803698084      663.786830320691
0.028054615743803996      662.7341951163265
0.028255929159991804      661.672213577809
0.028457242575555555      660.6008857051381
0.028658714513790734      659.5202114983142
0.028860503124391312      658.4301909573368
0.029062765814231884      657.3308240822064
0.029265100752448706      656.2379593964304
0.02946696141141544       655.1709691529345
0.029668505276199596      654.1298533517186
0.029869890575077548      653.1146119927828
0.03007127591008127       652.1252450761272
0.030272819883157453      651.1617526017515
0.03047468072232762       650.2241345696559
0.030677015912237836      649.3123909798403
0.030879305594778746      648.4810038178829
0.03108112103494649       647.6867898693273
0.031282619677010744      646.9297491341738
0.03148395970843373       646.2098816124222
0.0316852996905265        645.5271873040726
0.031886798184716555      644.8816662091249
0.032088613378814135      644.2733183275793
0.03229090271766436       643.7021436594355
0.03249314477533616       643.3259535126913
0.03269491316800606       643.0045125762191
0.03289636518952694       642.7378208500187
0.03309765887540427       642.5258783340902
0.033298952634071295      642.3686850284336
0.033500404873789524      642.266240933049
0.03370217362955133       642.218546047936
0.03390441619436107       642.2256003730952
0.03410686840969767       642.3417175750325
0.03430884535332711       642.5129623157349
0.0345105048019665        642.7393345952024
0.034712005278138794      643.0208344134352
0.03491350567956333       643.3574617704331
0.03511516490413611       643.7492166661962
0.035317141474908095      644.1960991007243
0.03551959316946952       644.6981090740176
0.035722216260139425      645.3502320140954
0.03592436286389621       646.044430481821
0.036126191200505704      646.7807044771944
0.03632786023882611       647.5590540002155
0.03652952932442421       648.3794790508845
0.036731357802754806      649.2419796292011
0.03693350464234149       650.1465557351659
0.03713612806239678       651.0932073687782
0.03733848789969145       652.1050783880596
0.037540373227224554      653.1370637413344
0.03774194158292153       654.1891634286026
0.03794335124849304       655.2613774498641
0.03814476087977932       656.3537058051189
0.03834632913270157       657.4661484943671
0.03854821428921239       658.5987055176087
0.038750573887637245      659.7513768748436
0.03895283596123875       660.9763568423181
0.039154623958694366      662.1869568524882
0.039356095285438375      663.3831769053537
0.03955740808971597       664.5650170009147
0.03975872089337115       665.7324771391712
0.03996019221824938       666.8855573201233
0.04016198021260023       668.0242575437711
0.04036424228186526       669.1485778101143
0.040566577948397485      670.2594601124931
0.040768439330593605      671.3342940986689
0.04096998391520435       672.3730797686417
0.04117136993220262       673.3758171224115
0.04137275598532357       674.3425061599784
0.04157430067821714       675.2731468813421
0.04177616224060133       676.167739286503
0.0419784981588055        677.0262833754608
0.04218078754816035       677.8715705962998
0.04238260269718259       678.6516349749085
0.04258410104946696       679.3664765112867
0.04278544079179545       680.0160952054348
0.04298678048479618       680.6004910573524
0.043188278689213704      681.1196640670398
0.043390093592177985      681.5736142344967
0.04359238263785921       681.9623415597235
0.043794623705544454      682.4129617783033
0.04399639111513442       682.7925599767688
0.04419784215819482       683.1011361551198
0.04439913486792596       683.3386903133566
0.044600427650446826      683.5052224514791
0.04480187891170468       683.6007325694874
0.045003646684386715      683.6252206673812
0.04520588825921017       683.5786867451608
