% Model:              brazing.mph
% Version:            COMSOL 5.3.0.223
% Date:               Oct 24 2018, 04:38
% Dimension:          1
% Nodes:              225
% Expressions:        1
% Description:        Line graph
% x                       Height
0                         703.7108107468732
2.1191841480136804E-4     703.6095452603633
4.2353438892247565E-4     703.466013306536
6.349689892252786E-4      703.2802148853907
8.463435942227858E-4      703.0521499969275
0.001057779685752053      702.781818641147
0.001269398639759412      702.4692208180484
0.001481321517995422      702.1143565276323
0.0017252358262731596     701.6435055623094
0.0019686866163640313     701.1369073049892
0.0022118589563155885     700.5945617556715
0.002454938550168189      700.0164689143568
0.0026981113144448556     699.4026287810452
0.0029415629522145732     698.753041355736
0.0031854785295931678     698.0677066384297
0.0034450106912723537     697.2381416372191
0.0037039863009040125     696.3731435595275
0.003962627412610827      695.4727124053551
0.0042211569424298        694.5368481747021
0.004479798094906585      693.5655508675684
0.004738773785972872      692.5588204839536
0.004998306069542035      691.5166570238581
0.005274868491808245      690.311415622383
0.005550758931995686      689.0865752423264
0.0058262454501036105     687.8421358836882
0.006101597285810183      686.5780975464686
0.006377084073678616      685.2944602306677
0.006652975052596927      683.9912239362849
0.006929538280995558      682.6683886633208
0.007206101510950518      681.3047688952961
0.007481992491406557      679.9576843776854
0.007757479280801014      678.6271351104886
0.00803283111802884       677.3131210937062
0.008308317637660222      676.015642327338
0.008584208079380276      674.7346988113837
0.008860770503195153      673.4702905458438
0.009120302815147717      672.2877157448931
0.00937927853441616       671.1477373128731
0.009637919714987194      670.0503552497836
0.009896449272866283      668.9955695556247
0.010155090412673047      667.9833802303968
0.010414066050518256      667.0137872740992
0.01067359824059789       666.0867906867323
0.010917512776055054      665.2437571810804
0.011160965100129169      664.4547255668542
0.011404139717480647      663.7196958440536
0.01164722176512739       663.038668012679
0.011890396591516505      662.4116420727302
0.012133849333188814      661.8386180242069
0.012377764493855997      661.3195958671095
0.01258968694000722       660.9128549425102
0.012801305803204788      660.5498032051281
0.013012742322906452      660.2304406549633
0.013224118052332232      659.9547672920157
0.01343555464954572       659.7227831162858
0.013647173667633327      659.5344881277728
0.013859096345786744      659.3898823264773
0.014071014760598048      659.3039289062319
0.014282630734729056      659.2609736144901
0.01449406533504172       659.2610164512523
0.014705439940049088      659.3040574165183
0.014916876031588231      659.3900965102886
0.015128494985605482      659.5191337325623
0.015340417863851432      659.69116908334
0.01558433217214941       659.9114337044205
0.015827782962260412      660.1935823781897
0.016070955302232025      660.5376151046478
0.016314034896104664      660.9435318837947
0.0165572076604014        661.4113327156308
0.01680065929819124       661.9410176001553
0.01704457487559009       662.532586537369
0.01730410703726679       663.1837767190003
0.017563082646895985      663.8782511412148
0.01782172375860034       664.6160098040126
0.018080253288416847      665.3970527073935
0.01833889444089119       666.221379851358
0.018597870131955005      667.0889912359054
0.018857402415521692      667.9998868610362
0.019133964837753384      668.9838502578858
0.019409855277906563      669.9878975279361
0.019685341795980367      671.0120286711872
0.019960693631652874      672.0562436876392
0.0202361804194872        673.1205425772922
0.020512071398371242      674.2049253401457
0.020788634626735362      675.3093919762001
0.02106519785666259       676.3911307225928
0.021341088837091095      677.4610653251161
0.021616575626458134      678.5191957837698
0.02189192746365859       679.5655220985542
0.022167413983262562      680.6000442694694
0.02244330442495508       681.6227622965149
0.022719866848742224      682.6336761796913
0.022979399160698737      683.4947974298834
0.023238374879971102      684.3324213913842
0.023497016060546046      685.1465480641929
0.023755545618429033      685.93717744831
0.02401418675823971       686.7043095437357
0.024273162396088833      687.4479443504692
0.024532694586172417      688.1680818685114
0.02477660912165014       688.774397625343
0.02502006144574469       689.3469580875096
0.025263236063116538      689.8857632550112
0.025506318110783622      690.3908131278479
0.025749492937193107      690.86210770602
0.02599294567888585       691.2996469895268
0.026236860839573585      691.7034309783688
0.026448783285734738      692.0019211576351
0.02666040214894219       692.2789664102762
0.026871838668653707      692.5345667362919
0.027083214398089334      692.7687221356823
0.027294650995312687      692.9814326084479
0.027506270013410168      693.1726981545878
0.02771819269157351       693.3425187741028
0.02793011110637494       693.4307254981238
0.028141727080496122      693.4955113614967
0.028353161680798985      693.5368763642208
0.028564536285796558      693.5548205062963
0.028775972377325904      693.5493437877237
0.028987591331333325      693.5204462085022
0.029199514209569403      693.4681277686324
0.02944342851784522       693.277119932837
0.02968687930793418       693.042708656566
0.02993005164788383       692.7648939398196
0.030173131241734534      692.4436757825978
0.0304163040060093        692.0790541849007
0.0306597556437771        691.6710291467276
0.030903671221153783      691.2196006680794
0.031163203382828072      690.5856621795125
0.03142217899245488       689.9054593190277
0.03168082010415685       689.1789920866247
0.03193934963397098       688.4062604823037
0.032197990786442934      687.5872645060648
0.03245696647750436       686.7220041579076
0.032716498761068635      685.8104794378326
0.03299306118333142       684.6704447490691
0.03326895162351545       683.5092280558108
0.03354443814161999       682.326829358057
0.03381978997732317       681.1232486558081
0.034095276765188226      679.8984859490645
0.03437116774410313       678.6525412378252
0.03464773097249833       677.385414522091
0.034924294202460265      676.0503931105386
0.03520018518292322       674.735756620793
0.03547567197232456       673.4415050528537
0.035751023809559274      672.1676384067209
0.036026510329197556      670.914156682395
0.036302400770924524      669.6810598798753
0.03657896319474637       668.4683479991622
0.036838495506703706      667.3333299014998
0.03709747122597688       666.252611800011
0.037356112406552636      665.2261936946954
0.03761464196443644       664.2540755855532
0.03787328310424792       663.3362574725847
0.03813225874209787       662.4727393557893
0.03839179093218227       661.6635212351674
0.03863570546763781       660.9360837445558
0.038879157791710306      660.275609601747
0.03912233240906017       659.6820988067406
0.03936541445670531       659.1555513595368
0.039608589283092806      658.6959672601361
0.039852042024763494      658.3033465085376
0.04009595718542905       657.977689104742
0.040307879631580334      657.7325433818119
0.04051949849477797       657.5413375640867
0.0407309350144797        657.4040716515664
0.040942310743905544      657.320745644251
0.04115374734111909       657.2913595421408
0.04136536635920676       657.315913345235
0.04157728903736024       657.3944070535345
0.04178920745215007       657.5323298052042
0.042000823426259694      657.7224873783035
0.042212258026551035      657.9648797728323
0.04242363263153709       658.2595069887907
0.0426350687230549        658.6063690261788
0.042846687677050764      659.0054658849958
0.04305861055527523       659.4567975652428
0.04330252486354604       660.0078020270233
0.043545975653630026      660.6283399849722
0.04378914799357473       661.3184114390893
0.044032227587420474      662.0780163893749
0.04427540035169028       662.9071548358289
0.04451885198945311       663.8058267784511
0.044762767566824783      664.7740322172418
0.045022299728516735      665.8379249832225
0.04528127533816108       666.9497954787051
0.045539916449880535      668.1096437036903
0.045798445979712124      669.3174696581777
0.046057087132201545      670.5732733421678
0.04631606282328052       671.8770547556599
0.046575595106862454      673.2288138986545
0.04685215752913061       674.6704406144162
0.04712804796931999       676.1341625307173
0.04740353448742985       677.6199796475579
0.04767888632313835       679.1278919649382
0.04795437311100872       680.6578994828583
0.048230264089928976      682.2100022013174
0.048506827318329566      683.7842001203163
0.04878339054829114       685.2770233898125
0.049059281528753745      686.7465655793405
0.04933476831815475       688.1928266888998
0.0496101201553891        689.6158067184911
0.04988560667502701       691.0155056681141
0.05016149711675364       692.3919235377684
0.050438059540575134      693.7450603274547
0.05069759185254397       694.8491177713134
0.05095656757182859       695.902822944448
0.05121520875241573       696.9061758468584
0.05147373831031092       697.8591764785448
0.051732379450133786      698.7618248395074
0.05199135508799517       699.6141209297456
0.05225088727809108       700.4160647492599
0.0524948018135407        701.0505024947925
0.052738254137607306      701.6229784323677
0.05298142875495131       702.1334925619855
0.05322451080259058       702.5820448836458
0.0534676856289722        702.9686353973492
0.05371113837063701       703.2932641030948
0.05395505353129665       703.5559310008832
0.05416697597743634       703.7156405755131
0.054378594840622414      703.829488851266
0.05459003136031263       703.8974758281416
0.05480140708972696       703.9196015061402
0.05501284368692898       703.895865885262
0.0552244627050051        703.826268965506
0.05543638538314697       703.7108107468732
