% Model:              brazing.mph
% Version:            COMSOL 5.3.0.223
% Date:               Oct 24 2018, 03:58
% Dimension:          1
% Nodes:              161
% Expressions:        1
% Description:        Line graph
% x                       Height
0                         664.016445305903
1.9693985890610136E-4     663.9777649210823
3.9298030043864816E-4     663.9509970897581
5.884188308682271E-4      663.9361418119302
7.835557095112735E-4      663.9331990875986
9.786925881542028E-4      663.9421689167632
0.0011741311185834375     663.9630512994241
0.0013701715601154056     663.9958462355812
0.0015671114190207022     664.0405537252346
0.0017642608961497635     663.802775435032
0.0019605081241513326     663.5608253575145
0.0021561515411346144     663.3147034926825
0.002351492352702621      663.0644098405357
0.0025468331642698894     662.8099444010743
0.0027424765812509564     662.5513071742982
0.0029387238092488436     662.2884981602075
0.0031358732863727766     662.0215173588022
0.0033326885608882563     661.6563798447604
0.0035286060983021257     661.2955305133936
0.0037239228519497995     660.9389693647016
0.003918938519653848      660.5866963986847
0.004113954187357973      660.2387116153426
0.004309270941005876      659.8950150146756
0.004505188478420127      659.5556065966834
0.004702003752936137      659.2204863613662
0.004899138702461749      658.87595425586
0.005095371599302965      658.547304499536
0.005291000816927052      658.234537092394
0.005486327495291825      657.937652034434
0.005681654173656831      657.6566493256561
0.0058772833912816074     657.3915289660603
0.0060735162881239745     657.1422909556464
0.006270651237651189      656.9089352944146
0.006467582778148322      656.7336227236142
0.006663615013526554      656.590886105852
0.006859045413116663      656.4807254411282
0.0070541741987231454     656.4031407294427
0.007249302984329781      656.3581319707955
0.007444733383920351      656.3456991651867
0.007640765619299351      656.3658423126162
0.007837697159797551      656.4185614130841
0.008034634474091872      656.4115827292301
0.008230672405352359      656.4414541614643
0.008426108448549354      656.5081757097863
0.008621242851524007      656.6117473741965
0.008816377254498534      656.7521691546948
0.009011813297695145      656.9294410512811
0.009207851228955002      657.1435630639554
0.00940478854324844       657.3945351927179
0.00960192671152544       657.7088636630987
0.00979816278359587       658.0375165015492
0.009993795147248338      658.3804937080694
0.010189124956984269      658.7377952826589
0.010384454766719743      659.109421225318
0.010580087130370853      659.4953715360467
0.010776323202439026      659.895646214845
0.01097346137071288       660.3102452617128
0.011170281912174305      660.6831710726418
0.011366204645540166      661.0655682869639
0.011561526547508357      661.4574369046788
0.011756547339625332      661.8587769257867
0.011951568131742307      662.2695883502876
0.0121468900337105        662.6898711781815
0.012342812767076368      663.1196254094682
0.0125396333085378        663.558851044148
0.012736771215691979      663.8475417134563
0.012933007030171178      664.1342111458663
0.013128639138602195      664.4188593413784
0.013323968694306592      664.7014862999921
0.013519298250011432      664.9820920217076
0.013714930358443784      665.2606765065249
0.0139111661729252        665.5372397544439
0.014108304080082462      665.8117817654648
0.014305241249097643      665.8060756603169
0.014501279037039759      665.80422475296
0.014696714938233999      665.806229043394
0.014891849199866372      665.8120885316188
0.015086983461498874      665.8218032176346
0.015282419362693495      665.8353731014415
0.01547845715063625       665.8527981830393
0.015675394319652317      665.8740784624282
0.015872325504405583      665.4991242988104
0.01606835738884011       665.1302385490983
0.016263787440706973      664.7674212132919
0.016458915880206496      664.4106722913908
0.016654044319705866      664.0599917833954
0.016849474371572262      663.7153796893056
0.017045506256006017      663.3768360091213
0.017242437440758204      663.0443607428426
0.01743957168037589       662.4869637261849
0.017635803876907424      661.9198251048789
0.01783143240066149       661.3429448789246
0.018026758388388308      660.7563230483223
0.01822208437611492       660.1599596130717
0.01841771289986836       659.5538545731728
0.018613945096398854      658.9380079286256
0.018811079336015085      658.3124196794303
0.019007894687321662      657.654831991594
0.01920381230049143       656.9989009901716
0.019399129129200405      656.3446266751628
0.01959414487161704       655.6920090465678
0.01978916061403359       655.0410481043867
0.01998447744274231       654.3917438486193
0.020180395055911654      653.7440962792657
0.020377210407217645      653.0981053963259
0.020574360469106157      652.5208143325988
0.020770608273960874      651.9637170923966
0.020966252262493188      651.4268136757189
0.021161593642948652      650.910104082566
0.021356935023404883      650.4135883129379
0.021552579011939476      649.9372663668345
0.021748826816797996      649.4811382442559
0.021945976878691802      649.045203945202
0.022142917141692885      648.7164966547746
0.022338957981867254      648.4308331055717
0.022534396907280062      648.1882132975933
0.02272953417907009       647.9886372308392
0.02292467145086023       647.8321049053097
0.02312011037627338       647.7186163210046
0.02331615121644832       647.6481714779239
0.023513091479450195      647.6207703760678
0.023710025135207962      647.5527744744071
0.02390605945730262       647.5332125372557
0.024101491924457957      647.5620845646137
0.024296622768016963      647.6393905564809
0.024491753611575823      647.7651305128574
0.02468718607873073       647.9393044337429
0.024883220400824673      648.1619123191377
0.025080154056581445      648.4329541690419
0.025277299572591536      648.8176457590201
0.025473542893039384      649.2228859871415
0.02566918243840792       649.6486748534056
0.025864519396400307      650.0950123578131
0.026059856354392216      650.5618985003633
0.026255495899759323      651.0493332810569
0.026451739220204794      651.5573166998932
0.026648884736211575      652.0858487568727
0.02684569473774919       652.6661681800729
0.027041607073256636      653.2516035196315
0.027236918672681274      653.8421547755482
0.027431929210095855      654.4378219478232
0.027626939747510428      655.0386050364564
0.027822251346935042      655.6445040414478
0.028018163682442445      656.2555189627975
0.028214973683980002      656.8716498005053
0.028412120943583204      657.463339245261
0.028608365984047285      658.0433862065385
0.02880400723361381       658.6117906843381
0.02899934588786498       659.1685526786598
0.02919468454211669       659.7136721895035
0.029390325791684838      660.2471492168694
0.02958657083215161       660.7689837607571
0.029783718091758563      661.2791758211671
0.029980652759780888      661.6191007969255
0.030176688080480362      661.9596639754936
0.030372121537075924      662.3008653568711
0.03056725336547531       662.6427049410584
0.030762385193874833      662.9851827280551
0.030957818650470807      663.3282987178615
0.031153853971170976      663.6720529104774
0.031350788639194264      664.016445305903
