% Model:              brazing.mph
% Version:            COMSOL 5.3.0.223
% Date:               Oct 24 2018, 01:57
% Dimension:          1
% Nodes:              161
% Expressions:        1
% Description:        Line graph
% x                       Height
0                         669.1898757508733
1.9693985890610136E-4     669.1504710554098
3.9298030043864816E-4     669.1229818525554
5.884188308682271E-4      669.1074081423101
7.835557095112735E-4      669.1037499246736
9.786925881542028E-4      669.1120071996462
0.0011741311185834375     669.1321799672278
0.0013701715601154056     669.1642682274185
0.0015671114190207022     669.2082719802181
0.0017642608961497635     668.9700626780349
0.0019605081241513326     668.7280252089481
0.0021561515411346144     668.4821595729574
0.002351492352702621      668.232465770063
0.0025468331642698894     667.9789438002648
0.0027424765812509564     667.7215936635629
0.0029387238092488436     667.4604153599572
0.0031358732863727766     667.1954088894478
0.0033326885608882563     666.8312815350674
0.0035286060983021257     666.4717691255959
0.0037239228519497995     666.1168716610326
0.003918938519653848      665.7665891413782
0.004113954187357973      665.4209215666322
0.004309270941005876      665.0798689367946
0.004505188478420127      664.7434312518656
0.004702003752936137      664.4116085118451
0.004899138702461749      664.0686018236044
0.005095371599302965      663.7417524476274
0.005291000816927052      663.4310603839143
0.005486327495291825      663.1365256324649
0.005681654173656831      662.8581481932792
0.0058772833912816074     662.5959280663574
0.0060735162881239745     662.3498652516993
0.006270651237651189      662.1199597493049
0.006467582778148322      661.9459414197568
0.006663615013526554      661.8045260224845
0.006859045413116663      661.6957135574878
0.0070541741987231454     661.619504024767
0.007249302984329781      661.575897424322
0.007444733383920351      661.5648937561526
0.007640765619299351      661.5864930202591
0.007837697159797551      661.6406952166413
0.008034634474091872      661.6355882748167
0.008230672405352359      661.6672082632339
0.008426108448549354      661.735555181893
0.008621242851524007      661.840629030794
0.008816377254498534      661.9824298099371
0.009011813297695145      662.1609575193221
0.009207851228955002      662.3762121589491
0.00940478854324844       662.6281937288179
0.00960192671152544       662.9416837995286
0.00979816278359587       663.2697321163023
0.009993795147248338      663.6123386791392
0.010189124956984269      663.969503488039
0.010384454766719743      664.3412265430018
0.010580087130370853      664.7275078440277
0.010776323202439026      665.1283473911167
0.01097346137071288       665.5437451842686
0.011170281912174305      665.9159214129922
0.011366204645540166      666.2977940690478
0.011561526547508357      666.6893631524347
0.011756547339625332      667.0906286631536
0.011951568131742307      667.501590601204
0.0121468900337105        667.9222489665862
0.012342812767076368      668.3526037593
0.0125396333085378        668.7926549793456
0.012736771215691979      669.0808059234356
0.012933007030171178      669.3672483382041
0.013128639138602195      669.6519822236515
0.013323968694306592      669.9350075797777
0.013519298250011432      670.2163244065825
0.013714930358443784      670.4959327040661
0.0139111661729252        670.7738324722285
0.014108304080082462      671.0500237110697
0.014305241249097643      671.0454206143949
0.014501279037039759      671.0446553056184
0.014696714938233999      671.0477277847405
0.014891849199866372      671.0546380517612
0.015086983461498874      671.0653861066805
0.015282419362693495      671.0799719494981
0.01547845715063625       671.0983955802145
0.015675394319652317      671.1206569988293
0.015872325504405583      670.7496392068334
0.01606835738884011       670.3845330898162
0.016263787440706973      670.0253386477783
0.016458915880206496      669.6720558807194
0.016654044319705866      669.3246847886395
0.016849474371572262      668.9832253715387
0.017045506256006017      668.6476776294169
0.017242437440758204      668.3180415622741
0.01743957168037589       667.7640410264652
0.017635803876907424      667.2006221960885
0.01783143240066149       666.6277850711441
0.018026758388388308      666.045529651632
0.01822208437611492       665.4538559375521
0.01841771289986836       664.8527639289046
0.018613945096398854      664.2422536256892
0.018811079336015085      663.622325027906
0.019007894687321662      662.9691894686912
0.01920381230049143       662.3178827518565
0.019399129129200405      661.6684048774016
0.01959414487161704       661.0207558453266
0.01978916061403359       660.3749356556315
0.01998447744274231       659.7309443083161
0.020180395055911654      659.0887818033807
0.020377210407217645      658.4484481408252
0.020574360469106157      657.8747027942202
0.020770608273960874      657.3211410642344
0.020966252262493188      656.7877629508678
0.021161593642948652      656.2745684541203
0.021356935023404883      655.781557573992
0.021552579011939476      655.308730310483
0.021748826816797996      654.8560866635933
0.021945976878691802      654.4236266333227
0.022142917141692885      654.0961679157045
0.022338957981867254      653.8114245769357
0.022534396907280062      653.5693966170157
0.02272953417907009       653.370084035945
0.02292467145086023       653.2134868337233
0.02312011037627338       653.0996050103506
0.02331615121644832       653.0284385658272
0.023513091479450195      652.9999875001529
0.023710025135207962      652.9309628905193
0.02390605945730262       652.9098966847631
0.024101491924457957      652.936788882884
0.024296622768016963      653.0116394848823
0.024491753611575823      653.1344484907578
0.02468718607873073       653.3052159005105
0.024883220400824673      653.5239417141405
0.025080154056581445      653.7906259316478
0.025277299572591536      654.1693297678298
0.025473542893039384      654.568582429368
0.02566918243840792       654.988383916262
0.025864519396400307      655.428734228512
0.026059856354392216      655.8896333661179
0.026255495899759323      656.3710813290797
0.026451739220204794      656.8730781173975
0.026648884736211575      657.3956237310713
0.02684569473774919       657.9682210201405
0.027041607073256636      658.5461449333492
0.027236918672681274      659.1293954706974
0.027431929210095855      659.7179726321853
0.027626939747510428      660.3118764178126
0.027822251346935042      660.9111068275795
0.028018163682442445      661.5156638614859
0.028214973683980002      662.1255475195318
0.028412120943583204      662.709622616697
0.028608365984047285      663.2825355517186
0.02880400723361381       663.8442863245969
0.02899934588786498       664.3948749353316
0.02919468454211669       664.9343013839228
0.029390325791684838      665.4625656703705
0.02958657083215161       665.9796677946748
0.029783718091758563      666.4856077568356
0.029980652759780888      666.8210834442575
0.030176688080480362      667.1572899350602
0.030372121537075924      667.4942272292437
0.03056725336547531       667.831895326808
0.030762385193874833      668.1702942277531
0.030957818650470807      668.509423932079
0.031153853971170976      668.8492844397857
0.031350788639194264      669.1898757508733
