% Model:              brazing.mph
% Version:            COMSOL 5.3.0.223
% Date:               Oct 24 2018, 06:06
% Dimension:          1
% Nodes:              225
% Expressions:        1
% Description:        Line graph
% x                       Height
0                         679.628867972532
2.1191841480136804E-4     679.5300281479763
4.2353438892247565E-4     679.38997464254
6.349689892252786E-4      679.2087074562231
8.463435942227858E-4      678.9862265890259
0.001057779685752053      678.7225320409485
0.001269398639759412      678.4176238119902
0.001481321517995422      678.0715019021518
0.0017252358262731596     677.6112043660186
0.0019686866163640313     677.1169347997239
0.0022118589563155885     676.588693203268
0.002454938550168189      676.0264795766506
0.0026981113144448556     675.430293919872
0.0029415629522145732     674.8001362329318
0.0031854785295931678     674.1360065158303
0.0034450106912723537     673.3271057580812
0.0037039863009040125     672.4840248722297
0.003962627412610827      671.6067638582756
0.0042211569424298        670.6953227162189
0.004479798094906585      669.7497014460602
0.004738773785972872      668.7699000477985
0.004998306069542035      667.7559185214345
0.005274868491808245      666.5790722949058
0.005550758931995686      665.3833797367374
0.0058262454501036105     664.1688408469289
0.006101597285810183      662.9354556254808
0.006377084073678616      661.6832240723933
0.006652975052596927      660.4121461876655
0.006929538280995558      659.1222219712982
0.007206101510950518      657.7908943272761
0.007481992491406557      656.476577892404
0.007757479280801014      655.1792726666813
0.00803283111802884       653.8989786501086
0.008308317637660222      652.635695842686
0.008584208079380276      651.3894242444128
0.008860770503195153      650.1601638552897
0.009120302815147717      649.0093946151393
0.00937927853441616       647.9011007282096
0.009637919714987194      646.8352821945002
0.009896449272866283      645.8119390140116
0.010155090412673047      644.8310711867441
0.010414066050518256      643.8926787126968
0.01067359824059789       642.9967615918704
0.010917512776055054      642.1816115637222
0.011160965100129169      641.4199699131713
0.011404139717480647      640.7118366402174
0.01164722176512739       640.0572117448608
0.011890396591516505      639.4560952271016
0.012133849333188814      638.9084870869393
0.012377764493855997      638.4143873243745
0.01258968694000722       638.0289864482953
0.012801305803204788      637.6865574646632
0.013012742322906452      637.3871003734782
0.013224118052332232      637.1306151747402
0.01343555464954572       636.9171018684498
0.013647173667633327      636.746560454606
0.013859096345786744      636.6189909332096
0.014071014760598048      636.5504591448862
0.014282630734729056      636.524101702484
0.01449406533504172       636.5399186060029
0.014705439940049088      636.5979098554428
0.014916876031588231      636.6980754508045
0.015128494985605482      636.8404153920868
0.015340417863851432      637.0249296792905
0.01558433217214941       637.2572665116866
0.015827782962260412      637.551067327384
0.016070955302232025      637.906332126383
0.016314034896104664      638.3230609086834
0.0165572076604014        638.8012536742856
0.01680065929819124       639.340910423189
0.01704457487559009       639.9420311553941
0.01730410703726679       640.6012539162069
0.017563082646895985      641.3028875485564
0.01782172375860034       642.0469320524426
0.018080253288416847      642.8333874278653
0.01833889444089119       643.6622536748251
0.018597870131955005      644.5335307933213
0.018857402415521692      645.4472187833544
0.019133964837753384      646.4327867101533
0.019409855277906563      647.437799522839
0.019685341795980367      648.4622572214116
0.019960693631652874      649.506159805871
0.0202361804194872        650.5695072762177
0.020512071398371242      651.652299632451
0.020788634626735362      652.7545368745713
0.02106519785666259       653.8343511279871
0.021341088837091095      654.902034062862
0.021616575626458134      655.9575856791962
0.02189192746365859       657.0010059769896
0.022167413983262562      658.0322949562425
0.02244330442495508       659.0514526169543
0.022719866848742224      660.0584789591254
0.022979399160698737      660.9126082017737
0.023238374879971102      661.7434769329972
0.023497016060546046      662.5510851527954
0.023755545618429033      663.3354328611689
0.02401418675823971       664.0965200581178
0.024273162396088833      664.8343467436412
0.024532694586172417      665.54891291774
0.02477660912165014       666.1483071663157
0.02502006144574469       666.7139503645049
0.025263236063116538      667.2458425123076
0.025506318110783622      667.7439836097238
0.025749492937193107      668.2083736567538
0.02599294567888585       668.639012653397
0.026236860839573585      669.0359005996539
0.026448783285734738      669.3275392845756
0.02666040214894219       669.5988229779283
0.026871838668653707      669.8497516797123
0.027083214398089334      670.0803253899275
0.027294650995312687      670.2905441085742
0.027506270013410168      670.4804078356517
0.02771819269157351       670.6499165711607
0.02793011110637494       670.7344785676949
0.028141727080496122      670.7969227276739
0.028353161680798985      670.8372490510977
0.028564536285796558      670.8554575379662
0.028775972377325904      670.8515481882802
0.028987591331333325      670.8255210020384
0.029199514209569403      670.7773759792417
0.02944342851784522       670.5896150764318
0.02968687930793418       670.3588374549611
0.02993005164788383       670.0850431148293
0.030173131241734534      669.7682320560368
0.0304163040060093        669.4084042785836
0.0306597556437771        669.005559782469
0.030903671221153783      668.5596985676939
0.031163203382828072      667.9284861976355
0.03142217899245488       667.251207969429
0.03168082010415685       666.5278638830741
0.03193934963397098       665.7584539385712
0.032197990786442934      664.9429781359203
0.03245696647750436       664.0814364751209
0.032716498761068635      663.1738289561735
0.03299306118333142       662.0346274534297
0.03326895162351545       660.8740683932429
0.03354443814161999       659.6921517756128
0.03381978997732317       658.4888776005397
0.034095276765188226      657.2642458680235
0.03437116774410313       656.018256578064
0.03464773097249833       654.7509097306614
0.034924294202460265      653.4153539270501
0.03520018518292322       652.0999107905859
0.03547567197232456       650.8045803212689
0.035751023809559274      649.529362519099
0.036026510329197556      648.2742573840765
0.036302400770924524      647.0392649162008
0.03657896319474637       645.8243851154723
0.036838495506703706      644.686129477305
0.03709747122597688       643.6017307295754
0.037356112406552636      642.5711888722831
0.03761464196443644       641.5945039054285
0.03787328310424792       640.671675829012
0.03813225874209787       639.8027046430324
0.03839179093218227       638.9875903474907
0.03863570546763781       638.2528583302121
0.038879157791710306      637.5844191489305
0.03912233240906017       636.9822728036457
0.03936541445670531       636.4464192943578
0.039608589283092806      635.9768586210673
0.039852042024763494      635.5735907837732
0.04009595718542905       635.2366157824764
0.040307879631580334      634.9804254176821
0.04051949849477797       634.7774016315955
0.0407309350144797        634.6275444242165
0.040942310743905544      634.5308537955449
0.04115374734111909       634.4873297455812
0.04136536635920676       634.4969722743247
0.04157728903736024       634.559781381776
0.04178920745215007       634.6816254845036
0.042000823426259694      634.8549760857909
0.042212258026551035      635.0798331856378
0.04242363263153709       635.3561967840443
0.0426350687230549        635.6840668810108
0.042846687677050764      636.0634434765368
0.04305861055527523       636.4943265706225
0.04330252486354604       637.0189983604349
0.043545975653630026      637.6130752082826
0.04378914799357473       638.2765571141655
0.044032227587420474      639.0094440780836
0.04427540035169028       639.8117361000373
0.04451885198945311       640.6834331800258
0.044762767566824783      641.6245353180498
0.045022299728516735      642.658036615713
0.04528127533816108       643.7390894246151
0.045539916449880535      644.8676937447558
0.045798445979712124      646.0438495761354
0.046057087132201545      647.2675569187539
0.04631606282328052       648.538815772611
0.046575595106862454      649.8576261377069
0.04685215752913061       651.2644163471055
0.04712804796931999       652.6937074959404
0.04740353448742985       654.1454995842121
0.04767888632313835       655.6197926119205
0.04795437311100872       657.1165865790657
0.048230264089928976      658.6358814856472
0.048506827318329566      660.1776773316656
0.04878339054829114       661.6408382409878
0.049059281528753745      663.0816023351575
0.04933476831815475       664.4999696141745
0.0496101201553891        665.8959400780386
0.04988560667502701       667.2695137267506
0.05016149711675364       668.6206905603095
0.050438059540575134      669.9494705787159
0.05069759185254397       671.0280438066569
0.05095656757182859       672.0576161974723
0.05121520875241573       673.0381877511614
0.05147373831031092       673.969758467725
0.051732379450133786      674.8523283471629
0.05199135508799517       675.6858973894747
0.05225088727809108       676.4704655946609
0.0524948018135407        677.08780969645
0.052738254137607306      677.644243906131
0.05298142875495131       678.1397682237035
0.05322451080259058       678.5743826491678
0.0534676856289722        678.9480871825241
0.05371113837063701       679.2608818237717
0.05395505353129665       679.5127665729113
0.05416697597743634       679.6628760103206
0.054378594840622414      679.7684776066709
0.05459003136031263       679.8295713619616
0.05480140708972696       679.846157276193
0.05501284368692898       679.8182353493655
0.0552244627050051        679.7458055814783
0.05543638538314697       679.628867972532
