% Model:              brazing.mph
% Version:            COMSOL 5.3.0.223
% Date:               Oct 24 2018, 04:38
% Dimension:          1
% Nodes:              225
% Expressions:        1
% Description:        Line graph
% x                       Height
0                         692.8475137018671
2.1191841480136804E-4     692.7450957286253
4.2353438892247565E-4     692.6008346383733
6.349689892252786E-4      692.4147304311111
8.463435942227858E-4      692.1867831068389
0.001057779685752053      691.9169926655567
0.001269398639759412      691.6053591072639
0.001481321517995422      691.2518824319612
0.0017252358262731596     690.7824387037948
0.0019686866163640313     690.2787083824543
0.0022118589563155885     689.7406914679399
0.002454938550168189      689.1683879602516
0.0026981113144448556     688.5617978593896
0.0029415629522145732     687.9209211653533
0.0031854785295931678     687.2457578781434
0.0034450106912723537     686.4223389255935
0.0037039863009040125     685.5645522349937
0.003962627412610827      684.6723978063441
0.0042211569424298        683.7458756396446
0.004479798094906585      682.7849857348957
0.004738773785972872      681.7897280920967
0.004998306069542035      680.7601027112479
0.005274868491808245      679.5627823214314
0.005550758931995686      678.3466257343433
0.0058262454501036105     677.1116329499832
0.006101597285810183      675.8578039683516
0.006377084073678616      674.5851387894486
0.006652975052596927      673.2936374132734
0.006929538280995558      671.9832998398267
0.007206101510950518      670.6291669194693
0.007481992491406557      669.2926090372287
0.007757479280801014      667.9736261931047
0.00803283111802884       666.6722183870976
0.008308317637660222      665.3883856192075
0.008584208079380276      664.1221278894338
0.008860770503195153      662.8734451977771
0.009120302815147717      661.7037294813712
0.00937927853441616       660.5773349237646
0.009637919714987194      659.4942615249573
0.009896449272866283      658.4545092849497
0.010155090412673047      657.4580782037419
0.010414066050518256      656.5049682813332
0.01067359824059789       655.5951795177242
0.010917512776055054      654.7673424793834
0.011160965100129169      653.9939018844794
0.011404139717480647      653.2748577330124
0.01164722176512739       652.6102100249822
0.011890396591516505      651.9999587603892
0.012133849333188814      651.4441039392325
0.012377764493855997      650.942645561513
0.01258968694000722       650.5517926259513
0.012801305803204788      650.2046041227314
0.013012742322906452      649.9010800518535
0.013224118052332232      649.6412204133176
0.01343555464954572       649.4250252071239
0.013647173667633327      649.252494433272
0.013859096345786744      649.1236280917622
0.014071014760598048      649.0548414766545
0.014282630734729056      649.0289524287374
0.01449406533504172       649.0459609480105
0.014705439940049088      649.1058670344742
0.014916876031588231      649.2086706881286
0.015128494985605482      649.3543719089729
0.015340417863851432      649.5429706970081
0.01558433217214941       649.7809861025472
0.015827782962260412      650.081325532747
0.016070955302232025      650.4439889876073
0.016314034896104664      650.8689764671284
0.0165572076604014        651.3562879713104
0.01680065929819124       651.9059235001528
0.01704457487559009       652.517883053656
0.01730410703726679       653.1889938819165
0.017563082646895985      653.9033440791383
0.01782172375860034       654.6609336453209
0.018080253288416847      655.4617625804647
0.01833889444089119       656.3058308845697
0.018597870131955005      657.1931385576354
0.018857402415521692      658.1236855996623
0.019133964837753384      659.1260391963764
0.019409855277906563      660.1484322793643
0.019685341795980367      661.1908648486256
0.019960693631652874      662.2533369041606
0.0202361804194872        663.3358484459695
0.020512071398371242      664.4383994740518
0.020788634626735362      665.560989988408
0.02106519785666259       666.6587779488168
0.021341088837091095      667.7446088014709
0.021616575626458134      668.8184825463698
0.02189192746365859       669.8803991835136
0.022167413983262562      670.9303587129027
0.02244330442495508       671.9683611345365
0.022719866848742224      672.9944064484154
0.022979399160698737      673.8620560345071
0.023238374879971102      674.7066301403636
0.023497016060546046      675.5281287659843
0.023755545618429033      676.3265519113698
0.02401418675823971       677.1018995765203
0.024273162396088833      677.8541717614348
0.024532694586172417      678.5833684661142
0.02477660912165014       679.1929340475854
0.02502006144574469       679.768323806345
0.025263236063116538      680.3095377423926
0.025506318110783622      680.8165758557287
0.025749492937193107      681.2894381463535
0.02599294567888585       681.7281246142662
0.026236860839573585      682.1326352594674
0.026448783285734738      682.4292282435977
0.02666040214894219       682.7056194089794
0.026871838668653707      682.9618087556124
0.027083214398089334      683.1977962834968
0.027294650995312687      683.4135819926331
0.027506270013410168      683.6091658830204
0.02771819269157351       683.7845479546594
0.02793011110637494       683.8717269610147
0.028141727080496122      683.9369296377545
0.028353161680798985      683.9801559848785
0.028564536285796558      684.0014060023868
0.028775972377325904      684.0006796902798
0.028987591331333325      683.9779770485565
0.029199514209569403      683.9332980772177
0.02944342851784522       683.747359937778
0.02968687930793418       683.5174136715381
0.02993005164788383       683.2434592784978
0.030173131241734534      682.9254967586575
0.0304163040060093        682.5635261120174
0.0306597556437771        682.1575473385768
0.030903671221153783      681.7075604383363
0.031163203382828072      681.0681245751371
0.03142217899245488       680.3819265723077
0.03168082010415685       679.648966429848
0.03193934963397098       678.869244147758
0.032197990786442934      678.0427597260382
0.03245696647750436       677.1695131646877
0.032716498761068635      676.2495044637072
0.03299306118333142       675.0918791447126
0.03326895162351545       673.9126501601929
0.03354443814161999       672.7118175101479
0.03381978997732317       671.4893811945777
0.034095276765188226      670.2453412134827
0.03437116774410313       668.9796975668622
0.03464773097249833       667.6924502547168
0.034924294202460265      666.3329281243379
0.03520018518292322       664.9941938673394
0.03547567197232456       663.6762474837216
0.035751023809559274      662.3790889734847
0.036026510329197556      661.1027183366285
0.036302400770924524      659.8471355731527
0.03657896319474637       658.6123406830578
0.036838495506703706      657.4539739869087
0.03709747122597688       656.3504998287335
0.037356112406552636      655.301918208532
0.03761464196443644       654.3082291263045
0.03787328310424792       653.3694325820511
0.03813225874209787       652.485528575771
0.03839179093218227       651.6565171074651
0.03863570546763781       650.9089949927869
0.038879157791710306      650.2288131873844
0.03912233240906017       649.6159716912576
0.03936541445670531       649.0704705044067
0.039608589283092806      648.5923096268319
0.039852042024763494      648.1814890585324
0.04009595718542905       647.8380087995091
0.040307879631580334      647.5770327672618
0.04051949849477797       647.3700499615526
0.0407309350144797        647.2170603823812
0.040942310743905544      647.1180640297479
0.04115374734111909       647.0730609036527
0.04136536635920676       647.0820510040953
0.04157728903736024       647.1450343310762
0.04178920745215007       647.2681302269151
0.042000823426259694      647.4435483065283
0.042212258026551035      647.6712885699156
0.04242363263153709       647.9513510170771
0.0426350687230549        648.283735648013
0.042846687677050764      648.6684424627227
0.04305861055527523       649.1054714612069
0.04330252486354604       649.6382323829613
0.043545975653630026      650.2414059111081
0.04378914799357473       650.9149920456467
0.044032227587420474      651.6589907865776
0.04427540035169028       652.473402133901
0.04451885198945311       653.358226087616
0.044762767566824783      654.3134626477234
0.045022299728516735      655.3625439290358
0.04528127533816108       656.4600753046021
0.045539916449880535      657.6060567744223
0.045798445979712124      658.8004883384966
0.046057087132201545      660.0433699968252
0.04631606282328052       661.3347017494074
0.046575595106862454      662.6744835962437
0.04685215752913061       664.102281184399
0.04712804796931999       665.5532438815565
0.04740353448742985       667.027371687716
0.04767888632313835       668.524664602878
0.04795437311100872       670.0451226270424
0.048230264089928976      671.5887457602087
0.048506827318329566      673.1555340023774
0.04878339054829114       674.6406054987015
0.049059281528753745      676.1031324006989
0.04933476831815475       677.54311470837
0.0496101201553891        678.9605524217145
0.04988560667502701       680.355445540733
0.05016149711675364       681.7277940654244
0.050438059540575134      683.0775979957896
0.05069759185254397       684.1707684319272
0.05095656757182859       685.2142010554718
0.05121520875241573       686.2078958664233
0.05147373831031092       687.1518528647817
0.051732379450133786      688.0460720505474
0.05199135508799517       688.8905534237197
0.05225088727809108       689.685296984299
0.0524948018135407        690.3094362776824
0.052738254137607306      690.8715525135092
0.05298142875495131       691.3716456917795
0.05322451080259058       691.8097158124937
0.0534676856289722        692.1857628756517
0.05371113837063701       692.499786881253
0.05395505353129665       692.7517878292982
0.05416697597743634       692.9007457470545
0.054378594840622414      693.0046094004431
0.05459003136031263       693.0633787894635
0.05480140708972696       693.0770539141162
0.05501284368692898       693.0456347744013
0.0552244627050051        692.969121370318
0.05543638538314697       692.8475137018671
