% Model:              brazing.mph
% Version:            COMSOL 5.3.0.223
% Date:               Oct 24 2018, 00:37
% Dimension:          1
% Nodes:              225
% Expressions:        1
% Description:        Line graph
% x                       Height
0                         647.8749989723269
2.1191841480136804E-4     647.7817275944245
4.2353438892247565E-4     647.6488323338199
6.349689892252786E-4      647.4763131905131
8.463435942227858E-4      647.2641701645042
0.001057779685752053      647.0124032557935
0.001269398639759412      646.7210124643802
0.001481321517995422      646.3899977902652
0.0017252358262731596     645.9487460830559
0.0019686866163640313     645.4762820149712
0.0022118589563155885     644.9726055860102
0.002454938550168189      644.4377167961736
0.0026981113144448556     643.8716156454614
0.0029415629522145732     643.274302133873
0.0031854785295931678     642.645776261409
0.0034450106912723537     641.8690339396992
0.0037039863009040125     641.0608438467768
0.003962627412610827      640.2212059826417
0.0042211569424298        639.350120347294
0.004479798094906585      638.447586940734
0.004738773785972872      637.5136057629611
0.004998306069542035      636.5481768139758
0.005274868491808245      635.411997333955
0.005550758931995686      634.2588359844945
0.0058262454501036105     633.0886927655939
0.006101597285810183      631.9015676772539
0.006377084073678616      630.6974607194743
0.006652975052596927      629.4763718922547
0.006929538280995558      628.2383011955956
0.007206101510950518      626.949790167393
0.007481992491406557      625.6794387380552
0.007757479280801014      624.4272469075819
0.00803283111802884       623.1932146759735
0.008308317637660222      621.9773420432302
0.008584208079380276      620.7796290093513
0.008860770503195153      619.6000755743373
0.009120302815147717      618.4908852826474
0.00937927853441616       617.4242520692212
0.009637919714987194      616.400175934059
0.009896449272866283      615.4186568771607
0.010155090412673047      614.4796948985268
0.010414066050518256      613.5832899981564
0.01067359824059789       612.72944217605
0.010917512776055054      611.9516832962124
0.011160965100129169      611.2264934604483
0.011404139717480647      610.5538726687575
0.01164722176512739       609.9338209211404
0.011890396591516505      609.3663382175971
0.012133849333188814      608.851424558127
0.012377764493855997      608.3890799427305
0.01258968694000722       608.031007068778
0.012801305803204788      607.714941245964
0.013012742322906452      607.4408824742887
0.013224118052332232      607.208830753752
0.01343555464954572       607.0187860843542
0.013647173667633327      606.8707484660948
0.013859096345786744      606.7647178989743
0.014071014760598048      606.71690160513
0.014282630734729056      606.710328310553
0.01449406533504172       606.7449980152431
0.014705439940049088      606.8209107192004
0.014916876031588231      606.9380664224251
0.015128494985605482      607.0964651249168
0.015340417863851432      607.2961068266758
0.01558433217214941       607.5461668270657
0.015827782962260412      607.8561061491018
0.016070955302232025      608.2259247927836
0.016314034896104664      608.6556227581117
0.0165572076604014        609.1452000450859
0.01680065929819124       609.6946566537058
0.01704457487559009       610.303992583972
0.01730410703726679       610.9694176042658
0.017563082646895985      611.6767867650304
0.01782172375860034       612.4261000662659
0.018080253288416847      613.2173575079723
0.01833889444089119       614.0505590901499
0.018597870131955005      614.9257048127981
0.018857402415521692      615.8427946759174
0.019133964837753384      616.8229591952988
0.019409855277906563      617.82287686465
0.019685341795980367      618.8425476839708
0.019960693631652874      619.8819716532612
0.0202361804194872        620.9411487725215
0.020512071398371242      622.0200790417512
0.020788634626735362      623.1187624609507
0.02106519785666259       624.1836426107998
0.021341088837091095      625.2374263611632
0.021616575626458134      626.2801137120407
0.02189192746365859       627.3117046634325
0.022167413983262562      628.3321992153387
0.02244330442495508       629.3415973677589
0.022719866848742224      630.3398991206935
0.022979399160698737      631.1702882686618
0.023238374879971102      631.9800089342644
0.023497016060546046      632.7690611175015
0.023755545618429033      633.537444818373
0.02401418675823971       634.2851600368795
0.024273162396088833      635.0122067730199
0.024532694586172417      635.718585026795
0.02477660912165014       636.2984923016556
0.02502006144574469       636.8453750644605
0.025263236063116538      637.3592333152095
0.025506318110783622      637.8400670539027
0.025749492937193107      638.2878762805402
0.02599294567888585       638.7026609951216
0.026236860839573585      639.0844211976473
0.026448783285734738      639.3590098090411
0.02666040214894219       639.6161009527042
0.026871838668653707      639.8556946286367
0.027083214398089334      640.0777908368386
0.027294650995312687      640.2823895773101
0.027506270013410168      640.4694908500508
0.02771819269157351       640.639094655061
0.02793011110637494       640.7142568387185
0.028141727080496122      640.7703856928274
0.028353161680798985      640.8074812173876
0.028564536285796558      640.8255434123993
0.028775972377325904      640.8245722778627
0.028987591331333325      640.804567813777
0.029199514209569403      640.7655300201429
0.02944342851784522       640.5865712246473
0.02968687930793418       640.364187136459
0.02993005164788383       640.098377755578
0.030173131241734534      639.7891430820041
0.0304163040060093        639.436483115738
0.0306597556437771        639.0403978567788
0.030903671221153783      638.6008873051271
0.031163203382828072      637.9687306626824
0.03142217899245488       637.2916507983753
0.03168082010415685       636.5696477122053
0.03193934963397098       635.8027214041728
0.032197990786442934      634.990871874278
0.03245696647750436       634.1340991225202
0.032716498761068635      633.2324031489001
0.03299306118333142       632.086062031535
0.03326895162351545       630.919652179647
0.03354443814161999       629.733173593236
0.03381978997732317       628.5266262723018
0.034095276765188226      627.300010216845
0.03437116774410313       626.0533254268648
0.03464773097249833       624.7865719023619
0.034924294202460265      623.4357205559704
0.03520018518292322       622.1068055702855
0.03547567197232456       620.7998269453069
0.035751023809559274      619.5147846810348
0.036026510329197556      618.2516787774694
0.036302400770924524      617.0105092346099
0.03657896319474637       615.7912760524572
0.036838495506703706      614.6403699299993
0.03709747122597688       613.5437423470452
0.037356112406552636      612.5013933035947
0.03761464196443644       611.5133227996478
0.03787328310424792       610.5795308352051
0.03813225874209787       609.7000174102657
0.03839179093218227       608.8747825248303
0.03863570546763781       608.1277210880667
0.038879157791710306      607.446113666461
0.03912233240906017       606.829960260013
0.03936541445670531       606.279260868723
0.039608589283092806      605.794015492591
0.039852042024763494      605.3742241316166
0.04009595718542905       605.0198867858004
0.040307879631580334      604.7484911490554
0.04051949849477797       604.5294247252841
0.0407309350144797        604.3626875144864
0.040942310743905544      604.2482795166625
0.04115374734111909       604.1862007318126
0.04136536635920676       604.176451159936
0.04157728903736024       604.2190308010335
0.04178920745215007       604.3201683041649
0.042000823426259694      604.472101242152
0.042212258026551035      604.6748296149947
0.04242363263153709       604.928353422693
0.0426350687230549        605.2326726652474
0.042846687677050764      605.5877873426571
0.04305861055527523       605.9936974549227
0.04330252486354604       606.4894977828866
0.043545975653630026      607.0540307136853
0.04378914799357473       607.6872962473185
0.044032227587420474      608.3892943837866
0.04427540035169028       609.1600251230897
0.04451885198945311       609.9994884652272
0.044762767566824783      610.9076844101995
0.045022299728516735      611.9044656452695
0.04528127533816108       612.9493592897072
0.045539916449880535      614.0423653435126
0.045798445979712124      615.1834838066857
0.046057087132201545      616.3727146792266
0.04631606282328052       617.610057961135
0.046575595106862454      618.8955136524113
0.04685215752913061       620.2599094554387
0.04712804796931999       621.648979656022
0.04740353448742985       623.0627242541608
0.04767888632313835       624.5011432498554
0.04795437311100872       625.964236643106
0.048230264089928976      627.4520044339118
0.048506827318329566      628.9644466222737
0.04878339054829114       630.390625743838
0.049059281528753745      631.7969001893094
0.04933476831815475       633.1832699586878
0.0496101201553891        634.5497350519731
0.04988560667502701       635.8962954691657
0.05016149711675364       637.2229512102648
0.050438059540575134      638.5297022752712
0.05069759185254397       639.5763842971253
0.05095656757182859       640.5762930101805
0.05121520875241573       641.5294284144362
0.05147373831031092       642.4357905098929
0.051732379450133786      643.2953792965508
0.05199135508799517       644.1081947744091
0.05225088727809108       644.8742369434684
0.0524948018135407        645.4706657046305
0.052738254137607306      646.0074254153595
0.05298142875495131       646.4845160756555
0.05322451080259058       646.9019376855183
0.0534676856289722        647.2596902449483
0.05371113837063701       647.5577737539447
0.05395505353129665       647.7961882125084
0.05416697597743634       647.9344058976881
0.054378594840622414      648.030303914466
0.05459003136031263       648.0838822628418
0.05480140708972696       648.0951409428159
0.05501284368692898       648.0640799543884
0.0552244627050051        647.9906992975584
0.05543638538314697       647.8749989723269
