% Model:              brazing.mph
% Version:            COMSOL 5.3.0.223
% Date:               Oct 24 2018, 06:19
% Dimension:          1
% Nodes:              225
% Expressions:        1
% Description:        Line graph
% x                       Height
0                         667.4534749473185
2.1191841480136804E-4     667.3576826537687
4.2353438892247565E-4     667.221525956754
6.349689892252786E-4      667.0450048562737
8.463435942227858E-4      666.8281193523286
0.001057779685752053      666.5708694449183
0.001269398639759412      666.2732551340428
0.001481321517995422      665.9352764197021
0.0017252358262731596     665.4850719641933
0.0019686866163640313     665.0023600489728
0.0022118589563155885     664.4871406740407
0.002454938550168189      663.9394138393966
0.0026981113144448556     663.359179545041
0.0029415629522145732     662.7464377909733
0.0031854785295931678     662.1011885771942
0.0034450106912723537     661.3100070220562
0.0037039863009040125     660.4858614297867
0.003962627412610827      659.6287518003851
0.0042211569424298        658.7386781338517
0.004479798094906585      657.8156404301869
0.004738773785972872      656.8596386893898
0.004998306069542035      655.8706729114613
0.005274868491808245      654.7169709176258
0.005550758931995686      653.5452099370953
0.0058262454501036105     652.3553899698696
0.006101597285810183      651.1475110159488
0.006377084073678616      649.9215730753332
0.006652975052596927      648.6775761480222
0.006929538280995558      647.4155202340164
0.007206101510950518      646.1095965164677
0.007481992491406557      644.8211818139422
0.007757479280801014      643.5502761264402
0.00803283111802884       642.2968794539614
0.008308317637660222      641.0609917965064
0.008584208079380276      639.8426131540746
0.008860770503195153      638.6417435266662
0.009120302815147717      637.5157876196948
0.00937927853441616       636.4322399774551
0.009637919714987194      635.391100599947
0.009896449272866283      634.3923694871706
0.010155090412673047      633.4360466391262
0.010414066050518256      632.5221320558132
0.01067359824059789       631.6506257372322
0.010917512776055054      630.8572461892584
0.011160965100129169      630.1168744971359
0.011404139717480647      629.429510660865
0.01164722176512739       628.7951546804459
0.011890396591516505      628.2138065558785
0.012133849333188814      627.6854662871623
0.012377764493855997      627.2101338742979
0.01258968694000722       626.8408407718439
0.012801305803204788      626.5139120397533
0.013012742322906452      626.229347678026
0.013224118052332232      625.987147686662
0.01343555464954572       625.7873120656616
0.013647173667633327      625.6298408150242
0.013859096345786744      625.5147339347503
0.014071014760598048      625.4586357962354
0.014282630734729056      625.4440764191951
0.01449406533504172       625.4710558036293
0.014705439940049088      625.5395739495382
0.014916876031588231      625.6496308569219
0.015128494985605482      625.8012265257798
0.015340417863851432      625.9943609561126
0.01558433217214941       626.2357444284712
0.015827782962260412      626.5379554543565
0.016070955302232025      626.9009940337685
0.016314034896104664      627.324860166707
0.0165572076604014        627.8095538531724
0.01680065929819124       628.355075093164
0.01704457487559009       628.9614238866826
0.01730410703726679       629.6246258305298
0.017563082646895985      630.3296961513394
0.01782172375860034       631.0766348491113
0.018080253288416847      631.8654419238457
0.01833889444089119       632.6961173755426
0.018597870131955005      633.5686612042017
0.018857402415521692      634.4830734098233
0.019133964837753384      635.4666146971971
0.019409855277906563      636.4693909411787
0.019685341795980367      637.491402141768
0.019960693631652874      638.5326482989651
0.0202361804194872        639.5931294127704
0.020512071398371242      640.672845483183
0.020788634626735362      641.7717965102037
0.02106519785666259       642.8459591377484
0.021341088837091095      643.9081257058122
0.021616575626458134      644.958296214395
0.02189192746365859       645.9964706634969
0.022167413983262562      647.0226490531182
0.02244330442495508       648.0368313832582
0.022719866848742224      649.0390176539175
0.022979399160698737      649.8832051441176
0.023238374879971102      650.7048771654837
0.023497016060546046      651.5040337180159
0.023755545618429033      652.280674801714
0.02401418675823971       653.0348004165787
0.024273162396088833      653.766410562609
0.024532694586172417      654.4755052398057
0.02477660912165014       655.0660451798162
0.02502006144574469       655.623000331554
0.025263236063116538      656.146370695019
0.025506318110783622      656.6361562702112
0.025749492937193107      657.0923570571313
0.02599294567888585       657.514973055778
0.026236860839573585      657.9040042661522
0.026448783285734738      658.1874647279187
0.02666040214894219       658.4518321677143
0.026871838668653707      658.6971065855394
0.027083214398089334      658.9232879813937
0.027294650995312687      659.1303763552777
0.027506270013410168      659.3183717071907
0.02771819269157351       659.4872740371333
0.02793011110637494       659.5671781298499
0.028141727080496122      659.6264062796599
0.028353161680798985      659.6649584865633
0.028564536285796558      659.68283475056
0.028775972377325904      659.6800350716503
0.028987591331333325      659.6565594498336
0.029199514209569403      659.6124078851104
0.02944342851784522       659.4283945321513
0.02968687930793418       659.2014318126646
0.02993005164788383       658.9315197266501
0.030173131241734534      658.618658274108
0.0304163040060093        658.2628474550387
0.0306597556437771        657.8640872694413
0.030903671221153783      657.4223777173164
0.031163203382828072      656.7923023460436
0.03142217899245488       656.1165202443091
0.03168082010415685       655.3950314121129
0.03193934963397098       654.6278358494548
0.032197990786442934      653.8149335563353
0.03245696647750436       652.9563245327537
0.032716498761068635      652.0520087787105
0.03299306118333142       650.9119157220192
0.03326895162351545       649.7506739646885
0.03354443814161999       648.5682835067181
0.03381978997732317       647.3647443481084
0.034095276765188226      646.1400564888596
0.03437116774410313       644.8942199289709
0.03464773097249833       643.627234668443
0.034924294202460265      642.2884709022077
0.03520018518292322       640.9701549696958
0.03547567197232456       639.6722868709072
0.035751023809559274      638.3948666058421
0.036026510329197556      637.1378941745005
0.036302400770924524      635.901369576882
0.03657896319474637       634.6852928129871
0.036838495506703706      633.5434043878586
0.03709747122597688       632.4552823051064
0.037356112406552636      631.4209265647299
0.03761464196443644       630.4403371667297
0.03787328310424792       629.513514111106
0.03813225874209787       628.640457397858
0.03839179093218227       627.8211670269862
0.03863570546763781       627.0810044831178
0.038879157791710306      626.406609854888
0.03912233240906017       625.7979831422963
0.03936541445670531       625.2551243453431
0.039608589283092806      624.7780334640288
0.039852042024763494      624.3667104983525
0.04009595718542905       624.0211554483149
0.040307879631580334      623.7569873667509
0.04051949849477797       623.545399776016
0.0407309350144797        623.38639267611
0.040942310743905544      623.2799660670329
0.04115374734111909       623.2261199487851
0.04136536635920676       623.2248543213661
0.04157728903736024       623.2761691847762
0.04178920745215007       623.3862412434079
0.042000823426259694      623.5472872855597
0.042212258026551035      623.7593073112319
0.04242363263153709       624.0223013204243
0.0426350687230549        624.3362693131372
0.042846687677050764      624.7012112893701
0.04305861055527523       625.1171272491235
0.04330252486354604       625.6233503844794
0.043545975653630026      626.198709001176
0.04378914799357473       626.8432030992129
0.044032227587420474      627.5568326785905
0.04427540035169028       628.3395977393089
0.04451885198945311       629.1914982813676
0.044762767566824783      630.112534304767
0.045022299728516735      631.1235815317033
0.04528127533816108       632.1820773988302
0.045539916449880535      633.288021906148
0.045798445979712124      634.4414150536564
0.046057087132201545      635.6422568413562
0.04631606282328052       636.8905472692463
0.046575595106862454      638.1862863373275
0.04685215752913061       639.5671478626223
0.04712804796931999       640.9711829287843
0.04740353448742985       642.3983915358136
0.04767888632313835       643.8487736837102
0.04795437311100872       645.322329372474
0.048230264089928976      646.8190586021049
0.048506827318329566      648.3389613726032
0.04878339054829114       649.7802775385197
0.049059281528753745      651.2001828519604
0.04933476831815475       652.5986773129251
0.0496101201553891        653.9757609214139
0.04988560667502701       655.3314336774271
0.05016149711675364       656.6656955809639
0.050438059540575134      657.978546632025
0.05069759185254397       659.0383437203934
0.05095656757182859       660.0502774255622
0.05121520875241573       661.0143477475309
0.05147373831031092       661.9305546863001
0.051732379450133786      662.7988982418697
0.05199135508799517       663.619378414239
0.05225088727809108       664.3919952034089
0.0524948018135407        664.9968747248691
0.052738254137607306      665.5415883484002
0.05298142875495131       666.0261360740017
0.05322451080259058       666.450517901674
0.0534676856289722        666.8147338314172
0.05371113837063701       667.1187838632308
0.05395505353129665       667.3626679971152
0.05416697597743634       667.5056360465907
0.054378594840622414      667.6052722200599
0.05459003136031263       667.6615765175234
0.05480140708972696       667.674548938981
0.05501284368692898       667.6441894844329
0.0552244627050051        667.5704981538786
0.05543638538314697       667.4534749473185
