% Model:              brazing.mph
% Version:            COMSOL 5.3.0.223
% Date:               Oct 24 2018, 02:43
% Dimension:          1
% Nodes:              225
% Expressions:        1
% Description:        Line graph
% x                       Height
0                         695.0713442621327
2.02242572596226E-4       695.0666562900041
4.040113375593453E-4      694.997979303054
6.054635867748898E-4      694.8653133012822
8.067573541103817E-4      694.668658284689
0.0010080510467017985     694.4080142532741
0.001209503071861434      694.0833812070379
0.0014112714639836859     693.6947591459798
0.001613513515825394      693.2421480701003
0.001815803045808458      692.8472944359798
0.0020176184164428694     692.4052877788448
0.0022191170764546647     691.9161280986954
0.0024204572175778446     691.3798153955315
0.00262179740518867       690.7963496693532
0.002823296204553664      690.1657309201603
0.0030251118070788686     689.4879591479527
0.003227401660948015      688.7630343527309
0.0034297372965816655     688.0606438164009
0.003631598594156443      687.3205795219197
0.0038331430353414214     686.5428414692872
0.004034528845142556      685.7274296585035
0.004235914622467191      684.8743440895686
0.004437458966299354      683.9835847624826
0.004639320101874085      683.0551516772454
0.004841655511239337      682.0890448338567
0.005043918276497792      681.216727508046
0.005245706959792293      680.3313673021294
0.0054471789681153834     679.4329642161069
0.00564849245128538       678.5215182499786
0.005849805932728159      677.5970294037445
0.006051277935873691      676.6594976774045
0.00625306661055245       675.7089230709589
0.006455329363777148      674.7453055844072
0.0066576887471433525     673.8112582981213
0.0068595736811967985     672.895150300012
0.007061141707903535      671.9969815900793
0.007262551112883539      671.1167521683232
0.007463960555734714      670.2544620347437
0.007665528695965537      669.4101111893409
0.00786741381892875       668.5836996321145
0.0080697734661485        667.7752273630648
0.008272395437950266      667.0509433072717
0.008474540847339949      666.3477255666735
0.008676367906616744      665.6655741412701
0.008878035577337231      665.0044890310614
0.009079703197965442      664.3644702360476
0.009281530107084053      663.7455177562289
0.00948367526660416       663.1476315916046
0.009686296889411194      662.5708117421754
0.009888748367913874      662.20980113888
0.010090724718905934      661.8853098690306
0.010292383720552634      661.5973379326269
0.010493883896490891      661.3458853296693
0.010695384145210549      661.1309520601575
0.010897043365029401      660.9525381240917
0.011099020079070253      660.8106435214715
0.011301472064648224      660.7052682522974
0.011503924099142101      660.70528825492
0.011705900863193036      660.7431328822602
0.011907560133099505      660.8188021343179
0.012109060430962503      660.9322960110933
0.012310560654077738      661.0836145125862
0.012512219699917606      661.2727576387965
0.012714196091111104      661.4997253897247
0.012916647604829811      661.7645177653703
0.013119269382981878      662.1866275030197
0.013321414683399362      662.6389433867163
0.013523241722808088      663.12146541646
0.013724909467002238      663.6341935922508
0.013926577258472442      664.1771279140886
0.014128404439597363      664.7502683819738
0.014330549975836581      665.3536149959058
0.01453317208336263       665.9871677558851
0.014735531766219815      666.692148683287
0.014937416940401616      667.4085568288426
0.015138985143475461      668.1363921925521
0.015340394656791169      668.8756547744152
0.015541804135826716      669.6263445744322
0.015743372236141022      670.388461592603
0.015945257239325793      671.1620058289276
0.01614761668334845       671.9469772834061
0.01634987940592303       672.8573116087775
0.016551668047823844      673.7542546949715
0.016753140015983766      674.6378065419882
0.0169544534601584        675.5079671498273
0.017155766903708087      676.364736518489
0.017357238869994664      677.2081146479734
0.017559027508778132      678.0381015382804
0.01776129022699866       678.8546971894099
0.017963625484858744      679.6986341324472
0.018165486461237414      680.5182730214134
0.018367030641941378      681.313613856309
0.018568416255992027      682.0846566371333
0.018769801906169285      682.831401363887
0.018971346195167795      683.5538480365695
0.019173207351754082      684.2519966551812
0.019375542861313405      684.925847219722
0.019577832661189145      685.6237487894322
0.019779648217873542      686.268704539041
0.019981146975907166      686.8607144685482
0.020182487123025287      687.399778577954
0.020383827220813066      687.8858968672581
0.020585325830972126      688.3190693364606
0.020787141141585735      688.6992959855619
0.020989430597769934      689.0265768145615
0.021191672662378012      689.4737849992372
0.021393441061935803      689.8569954829791
0.02159489309031221       690.1762082657873
0.021796186783028852      690.4314233476617
0.021997480548535182      690.6226407286025
0.022198932795108938      690.7498604086094
0.022400701557758636      690.8130823876828
0.02260294412950465       690.8123066658223
0.02280539620920995       690.8607927682443
0.023007373018156245      690.8430765050424
0.02320903233274668       690.759157876217
0.023410532675187733      690.6090368817677
0.023612032942881025      690.3927135216949
0.023813692033404853      690.1101877959981
0.024015668469493705      689.7614597046776
0.024218120028423832      689.3465292477334
0.024420742013481003      688.965922282118
0.02462288751935683       688.531569905745
0.02482471476325633       688.0434721186144
0.02502638271145666       687.5016289207264
0.025228050706933344      686.9060403120808
0.025429878092549915      686.2567062926777
0.025632023834248962      685.5536268625173
0.025834646148682177      684.796802021599
0.026037006051731277      684.0397644608182
0.026238891444565628      683.2422635520317
0.02644045986526205       682.4042992952391
0.026641869595683754      681.5258716904409
0.02684327929182417       680.606980737637
0.027044847609757647      679.647626436827
0.02724673283158932       678.6478087880113
0.027449092495796006      677.6075277911897
0.02765135518998453       676.6064325546565
0.027853143803698084      675.5961459334557
0.028054615743803996      674.5766679275874
0.028255929159991804      673.5479985370516
0.028457242575555555      672.5101377618483
0.028658714513790734      671.4630856019775
0.028860503124391312      670.4068420574391
0.029062765814231884      669.3414071282332
0.029265100752448706      668.2816367469611
0.02946696141141544       667.2470975689326
0.029668505276199596      666.2377895941474
0.029869890575077548      665.2537128226058
0.03007127591008127       664.2948672543076
0.030272819883157453      663.361252889253
0.03047468072232762       662.4528697274417
0.030677015912237836      661.5697177688737
0.030879305594778746      660.7666102532825
0.03108112103494649       659.9988219705056
0.031282619677010744      659.2663529205432
0.03148395970843373       658.5692031033954
0.0316852996905265        657.907372519062
0.031886798184716555      657.2808611675431
0.032088613378814135      656.6896690488387
0.03229090271766436       656.1337961629488
0.03249314477533616       655.7751476708293
0.03269491316800606       655.4689970161239
0.03289636518952694       655.2153441988329
0.03309765887540427       655.0141892189561
0.033298952634071295      654.8655320764934
0.033500404873789524      654.7693727714451
0.03370217362955133       654.7257113038108
0.03390441619436107       654.7345476735908
0.03410686840969767       654.8506956224605
0.03430884535332711       655.0197181892898
0.0345105048019665        655.2416153740786
0.034712005278138794      655.5163871768269
0.03491350567956333       655.8440335975348
0.03511516490413611       656.2245546362021
0.035317141474908095      656.657950292829
0.03551959316946952       657.1442205674153
0.035722216260139425      657.7813221193201
0.03592436286389621       658.4587870702054
0.036126191200505704      659.1766154200714
0.03632786023882611       659.9348071689179
0.03652952932442421       660.7333623167451
0.036731357802754806      661.5722808635529
0.03693350464234149       662.4515628093413
0.03713612806239678       663.3712081541104
0.03733848789969145       664.3554746195783
0.037540373227224554      665.3588662829602
0.03774194158292153       666.3813831442561
0.03794335124849304       667.4230252034662
0.03814476087977932       668.4837924605903
0.03834632913270157       669.5636849156284
0.03854821428921239       670.6627025685806
0.038750573887637245      671.7808454194467
0.03895283596123875       672.9741561281436
0.039154623958694366      674.1533378818442
0.039356095285438375      675.3183906805485
0.03955740808971597       676.4693145242566
0.03975872089337115       677.6061094129683
0.03996019221824938       678.7287753466836
0.04016198021260023       679.8373123254029
0.04036424228186526       680.9317203491258
0.040566577948397485      682.0125928654243
0.040768439330593605      683.0587430164228
0.04096998391520435       684.0701708021218
0.04117136993220262       685.046876222521
0.04137275598532357       685.9888592776203
0.04157430067821714       686.8961199674201
0.04177616224060133       687.76865829192
0.0419784981588055        688.6064742511203
0.04218078754816035       689.432746044627
0.04238260269718259       690.1951773483789
0.04258410104946696       690.8937681623759
0.04278544079179545       691.5285184866179
0.04298678048479618       692.0994283211053
0.043188278689213704      692.6064976658375
0.043390093592177985      693.049726520815
0.04359238263785921       693.4291148860378
0.043794623705544454      693.878195609181
0.04399639111513442       694.2576186034296
0.04419784215819482       694.5673838687835
0.04439913486792596       694.8074914052427
0.044600427650446826      694.9779412128071
0.04480187891170468       695.078733291477
0.045003646684386715      695.1098676412521
0.04520588825921017       695.0713442621327
