% Model:              brazing.mph
% Version:            COMSOL 5.3.0.223
% Date:               Oct 24 2018, 03:45
% Dimension:          1
% Nodes:              225
% Expressions:        1
% Description:        Line graph
% x                       Height
0                         730.2451039451103
2.02242572596226E-4       730.227679494082
4.040113375593453E-4      730.1355047965346
6.054635867748898E-4      729.9685798524682
8.067573541103817E-4      729.7269046618827
0.0010080510467017985     729.4104792247782
0.001209503071861434      729.0193035411544
0.0014112714639836859     728.5533776110118
0.001613513515825394      728.01270143435
0.001815803045808458      727.5394504900958
0.0020176184164428694     727.0114020047865
0.0022191170764546647     726.4285559784221
0.0024204572175778446     725.7909124110026
0.00262179740518867       725.098471302528
0.002823296204553664      724.3512326529984
0.0030251118070788686     723.5491964624139
0.003227401660948015      722.6923627307741
0.0034297372965816655     721.8667022304041
0.003631598594156443      720.9963640442147
0.0038331430353414214     720.0813481722059
0.004034528845142556      719.1216546143779
0.004235914622467191      718.1172833707307
0.004437458966299354      717.0682344412637
0.004639320101874085      715.9745078259776
0.004841655511239337      714.8361035248722
0.005043918276497792      713.8128327339894
0.005245706959792293      712.7732666609031
0.0054471789681153834     711.7174053056133
0.00564849245128538       710.64524866812
0.005849805932728159      709.556796748423
0.006051277935873691      708.4520495465227
0.00625306661055245       707.3310070624191
0.006455329363777148      706.1936692961118
0.0066576887471433525     705.0948051530013
0.0068595736811967985     704.0162504825713
0.007061141707903535      702.9580052848223
0.007262551112883539      701.9200695597538
0.007463960555734714      700.9024433073661
0.007665528695965537      699.9051265276588
0.00786741381892875       698.9281192206325
0.0080697734661485        697.9714213862867
0.008272395437950266      697.1154384475129
0.008474540847339949      696.2833682482669
0.008676367906616744      695.4752107885487
0.008878035577337231      694.6909660683581
0.009079703197965442      693.9306340876952
0.009281530107084053      693.1942148465603
0.00948367526660416       692.4817083449528
0.009686296889411194      691.7931145828733
0.009888748367913874      691.3578433612523
0.010090724718905934      690.9644891253915
0.010292383720552634      690.613051875291
0.010493883896490891      690.3035316109507
0.010695384145210549      690.0359283323706
0.010897043365029401      689.8102420395509
0.011099020079070253      689.6264727324912
0.011301472064648224      689.4846204111919
0.011503924099142101      689.4697187233378
0.011705900863193036      689.4984412931489
0.011907560133099505      689.5707881206249
0.012109060430962503      689.686759205766
0.012310560654077738      689.8463545485722
0.012512219699917606      690.0495741490432
0.012714196091111104      690.2964180071797
0.012916647604829811      690.586886122981
0.013119269382981878      691.0612088646213
0.013321414683399362      691.5706016463769
0.013523241722808088      692.1150644682476
0.013724909467002238      692.6945973302337
0.013926577258472442      693.3092002323351
0.014128404439597363      693.9588731745517
0.014330549975836581      694.6436161568834
0.01453317208336263       695.3634291793305
0.014735531766219815      696.1706451849739
0.014937416940401616      696.990740813986
0.015138985143475461      697.8237160663671
0.015340394656791169      698.6695709421168
0.015541804135826716      699.5283054412355
0.015743372236141022      700.399919563723
0.015945257239325793      701.2844133095791
0.01614761668334845       702.1817866788042
0.01634987940592303       703.2297199415364
0.016551668047823844      704.2616574788075
0.016753140015983766      705.2775992906176
0.0169544534601584        706.2775453769664
0.017155766903708087      707.2614957378541
0.017357238869994664      708.2294503732807
0.017559027508778132      709.1814092832462
0.01776129022699866       710.1173724677506
0.017963625484858744      711.0905874075949
0.018165486461237414      712.0356874464636
0.018367030641941378      712.9526725843568
0.018568416255992027      713.8415428212744
0.018769801906169285      714.7022981572165
0.018971346195167795      715.5349385921829
0.019173207351754082      716.3394641261741
0.019375542861313405      717.1158747591894
0.019577832661189145      717.9304937164936
0.019779648217873542      718.6830204634501
0.019981146975907166      719.373455000059
0.020182487123025287      720.0017973263203
0.020383827220813066      720.5680474422339
0.020585325830972126      721.0722053478003
0.020787141141585735      721.5142710430185
0.020989430597769934      721.8942445278896
0.021191672662378012      722.4257956430628
0.021393441061935803      722.8832453988001
0.02159489309031221       723.2665937951012
0.021796186783028852      723.5758408319665
0.021997480548535182      723.8109865093958
0.022198932795108938      723.972030827389
0.022400701557758636      724.058973785946
0.02260294412950465       724.0718153850672
0.02280539620920995       724.1504996093972
0.023007373018156245      724.1524444024323
0.02320903233274668       724.0776497641723
0.023410532675187733      723.9261156946174
0.023612032942881025      723.6978421937673
0.023813692033404853      723.3928292616224
0.024015668469493705      723.0110768981825
0.024218120028423832      722.5525851034475
0.024420742013481003      722.1336678526912
0.02462288751935683       721.6524720457261
0.02482471476325633       721.1089976825522
0.02502638271145666       720.5032447631695
0.025228050706933344      719.835213287578
0.025429878092549915      719.1049032557776
0.025632023834248962      718.3123146677685
0.025834646148682177      717.4574475235505
0.026037006051731277      716.6063249995658
0.026238891444565628      715.7077852761034
0.02644045986526205       714.7618283531638
0.026641869595683754      713.7684542307466
0.02684327929182417       712.7276629088518
0.027044847609757647      711.6394543874795
0.02724673283158932       710.5038286666298
0.027449092495796006      709.3207857463027
0.02765135518998453       708.1874823697962
0.027853143803698084      707.0427202953981
0.028054615743803996      705.8864995231087
0.028255929159991804      704.7188200529276
0.028457242575555555      703.5396818848552
0.028658714513790734      702.3490850188912
0.028860503124391312      701.147029455036
0.029062765814231884      699.9335151932889
0.029265100752448706      698.7286961256021
0.02946696141141544       697.5527862998475
0.029668505276199596      696.4057857160253
0.029869890575077548      695.2876943741355
0.03007127591008127       694.1985122741779
0.030272819883157453      693.1382394161528
0.03047468072232762       692.1068758000598
0.030677015912237836      691.1044214258992
0.030879305594778746      690.1958020314033
0.03108112103494649       689.328148487239
0.031282619677010744      688.5014607934058
0.03148395970843373       687.7157389499042
0.0316852996905265        686.9709829567339
0.031886798184716555      686.2671928138951
0.032088613378814135      685.6043685213876
0.03229090271766436       684.9825100792117
0.03249314477533616       684.584421576808
0.03269491316800606       684.2468641218229
0.03289636518952694       683.9698377142564
0.03309765887540427       683.7533423541087
0.033298952634071295      683.5973780413793
0.033500404873789524      683.5019447760687
0.03370217362955133       683.4670425581768
0.03390441619436107       683.4926713877035
0.03410686840969767       683.6447389844664
0.03430884535332711       683.8578463543781
0.0345105048019665        684.1319934974385
0.034712005278138794      684.4671804136477
0.03491350567956333       684.8634071030057
0.03511516490413611       685.3206735655124
0.035317141474908095      685.8389798011682
0.03551959316946952       686.4183258099724
0.035722216260139425      687.1683674444733
0.03592436286389621       687.9647900620342
0.036126191200505704      688.8075936626547
0.03632786023882611       689.696778246335
0.03652952932442421       690.6323438130752
0.036731357802754806      691.6142903628751
0.03693350464234149       692.6426178957348
0.03713612806239678       693.7173264116542
0.03733848789969145       694.8683048752547
0.037540373227224554      696.0406634948879
0.03774194158292153       697.2344022705537
0.03794335124849304       698.449521202252
0.03814476087977932       699.6860202899828
0.03834632913270157       700.9438995337464
0.03854821428921239       702.2231589335425
0.038750573887637245      703.5237984893713
0.03895283596123875       704.9108605042004
0.039154623958694366      706.280452572572
0.039356095285438375      707.632574694486
0.03955740808971597       708.9672268699426
0.03975872089337115       710.2844090989415
0.03996019221824938       711.584121381483
0.04016198021260023       712.8663637175669
0.04036424228186526       714.1311361071934
0.040566577948397485      715.38125162742
0.040768439330593605      716.5899322147901
0.04096998391520435       717.7571778693035
0.04117136993220262       718.8829885909603
0.04137275598532357       719.9673643797603
0.04157430067821714       721.0103052357035
0.04177616224060133       722.0118111587901
0.0419784981588055        722.9718821490202
0.04218078754816035       723.9241735595382
0.04238260269718259       724.8006398703498
0.04258410104946696       725.6012810814547
0.04278544079179545       726.3260971928531
0.04298678048479618       726.9750882045449
0.043188278689213704      727.5482541165303
0.043390093592177985      728.045594928809
0.04359238263785921       728.4671106413814
0.043794623705544454      728.974240903809
0.04399639111513442       729.3999765663905
0.04419784215819482       729.7443176291258
0.04439913486792596       730.007264092015
0.044600427650446826      730.1888159550581
0.04480187891170468       730.288973218255
0.045003646684386715      730.3077358816058
0.04520588825921017       730.2451039451103
