% Model:              brazing.mph
% Version:            COMSOL 5.3.0.223
% Date:               Oct 24 2018, 02:25
% Dimension:          1
% Nodes:              161
% Expressions:        1
% Description:        Line graph
% x                       Height
0                         673.2325967864213
1.9693985890610136E-4     673.1913393436887
3.9298030043864816E-4     673.1623759114776
5.884188308682271E-4      673.1457064897882
7.835557095112735E-4      673.1413310786202
9.786925881542028E-4      673.1492496779737
0.0011741311185834375     673.1694622878489
0.0013701715601154056     673.2019689082456
0.0015671114190207022     673.2467695391638
0.0017642608961497635     673.0088749042341
0.0019605081241513326     672.7669249003959
0.0021561515411346144     672.5209195276493
0.002351492352702621      672.270858785994
0.0025468331642698894     672.0167426754304
0.0027424765812509564     671.7585711959581
0.0029387238092488436     671.4963443475773
0.0031358732863727766     671.230062130288
0.0033326885608882563     670.8666546162189
0.0035286060983021257     670.5075321494338
0.0037239228519497995     670.1526947299332
0.003918938519653848      669.8021423577168
0.004113954187357973      669.4558750327845
0.004309270941005876      669.1138927551366
0.004505188478420127      668.7761955247728
0.004702003752936137      668.4427833416933
0.004899138702461749      668.1003571029854
0.005095371599302965      667.7737694930385
0.005291000816927052      667.4630205118527
0.005486327495291825      667.1681101594278
0.005681654173656831      666.8890384357641
0.0058772833912816074     666.6258053408612
0.0060735162881239745     666.3784108747196
0.006270651237651189      666.1468550373389
0.006467582778148322      665.9734066398687
0.006663615013526554      665.8324371192213
0.006859045413116663      665.7239464753964
0.0070541741987231454     665.6479347083941
0.007249302984329781      665.6044018182146
0.007444733383920351      665.5933478048574
0.007640765619299351      665.6147726683232
0.007837697159797551      665.6686764086114
0.008034634474091872      665.6621578418142
0.008230672405352359      665.6923663219559
0.008426108448549354      665.7593018490365
0.008621242851524007      665.8629644230558
0.008816377254498534      666.0033540440141
0.009011813297695145      666.1804707119112
0.009207851228955002      666.3943144267472
0.00940478854324844       666.644885188522
0.00960192671152544       666.9591837840826
0.00979816278359587       667.287723062839
0.009993795147248338      667.6305030247909
0.010189124956984269      667.9875236699386
0.010384454766719743      668.358784998282
0.010580087130370853      668.744287009821
0.010776323202439026      669.1440297045559
0.01097346137071288       669.5580130824865
0.011170281912174305      669.9304478537939
0.011366204645540166      670.3123621782019
0.011561526547508357      670.70375605571
0.011756547339625332      671.1046294863186
0.011951568131742307      671.5149824700276
0.0121468900337105        671.9348150068367
0.012342812767076368      672.3641270967463
0.0125396333085378        672.8029187397563
0.012736771215691979      673.0917120527816
0.012933007030171178      673.37852959863
0.013128639138602195      673.6633713773011
0.013323968694306592      673.9462373887955
0.013519298250011432      674.2271276331127
0.013714930358443784      674.5060421102527
0.0139111661729252        674.7829808202157
0.014108304080082462      675.0579437630016
0.014305241249097643      675.0529598779262
0.014501279037039759      675.0520548082185
0.014696714938233999      675.0552285538786
0.014891849199866372      675.0624811149065
0.015086983461498874      675.0738124913022
0.015282419362693495      675.0892226830657
0.01547845715063625       675.108711690197
0.015675394319652317      675.1322795126961
0.015872325504405583      674.7592485173525
0.01606835738884011       674.3925206111779
0.016263787440706973      674.0320957941728
0.016458915880206496      673.6779740663371
0.016654044319705866      673.3301554276705
0.016849474371572262      672.9886398781734
0.017045506256006017      672.6534274178455
0.017242437440758204      672.3245180466868
0.01743957168037589       671.7707450363827
0.017635803876907424      671.2073740399585
0.01783143240066149       670.6344050574143
0.018026758388388308      670.0518380887498
0.01822208437611492       669.4596731339652
0.01841771289986836       668.8579101930607
0.018613945096398854      668.2465492660359
0.018811079336015085      667.6255903528911
0.019007894687321662      666.9732957689541
0.01920381230049143       666.3225617975729
0.019399129129200405      665.6733884387475
0.01959414487161704       665.025775692478
0.01978916061403359       664.3797235587643
0.01998447744274231       663.7352320376066
0.020180395055911654      663.0923011290046
0.020377210407217645      662.4509308329584
0.020574360469106157      661.878258107831
0.020770608273960874      661.3255007965548
0.020966252262493188      660.79265889913
0.021161593642948652      660.2797324155563
0.021356935023404883      659.7867213458338
0.021552579011939476      659.3136256899624
0.021748826816797996      658.8604454479422
0.021945976878691802      658.4271806197733
0.022142917141692885      658.101116108295
0.022338957981867254      657.8176876051913
0.022534396907280062      657.5768951104619
0.02272953417907009       657.3787386241071
0.02292467145086023       657.2232181461268
0.02312011037627338       657.1103336765211
0.02331615121644832       657.04008521529
0.023513091479450195      657.0124727624334
0.023710025135207962      656.9433109102384
0.02390605945730262       656.9221401825083
0.024101491924457957      656.9489605792432
0.024296622768016963      657.0237721004431
0.024491753611575823      657.146574746108
0.02468718607873073       657.3173685162376
0.024883220400824673      657.5361534108323
0.025080154056581445      657.8029294298918
0.025277299572591536      658.1837607781683
0.025473542893039384      658.5848453876763
0.02566918243840792       659.0061832584158
0.025864519396400307      659.4477743903869
0.026059856354392216      659.9096187835894
0.026255495899759323      660.3917164380235
0.026451739220204794      660.8940673536891
0.026648884736211575      661.4166715305862
0.02684569473774919       661.9909470737214
0.027041607073256636      662.5703151421958
0.027236918672681274      663.1547757360103
0.027431929210095855      663.7443288551639
0.027626939747510428      664.3389744996572
0.027822251346935042      664.93871266949
0.028018163682442445      665.5435433646624
0.028214973683980002      666.1534665851743
0.028412120943583204      666.7393611403418
0.028608365984047285      667.3137788926817
0.02880400723361381       667.8767198421938
0.02899934588786498       668.4281839888782
0.02919468454211669       668.968171332735
0.029390325791684838      669.496681873764
0.02958657083215161       670.0137156119655
0.029783718091758563      670.5192725473391
0.029980652759780888      670.8551184992746
0.030176688080480362      671.1919129020529
0.030372121537075924      671.529655755674
0.03056725336547531       671.8683470601378
0.030762385193874833      672.2079868154444
0.030957818650470807      672.5485750215939
0.031153853971170976      672.8901116785862
0.031350788639194264      673.2325967864213
