% Model:              brazing.mph
% Version:            COMSOL 5.3.0.223
% Date:               Oct 19 2018, 14:58
% Dimension:          1
% Nodes:              225
% Expressions:        1
% Description:        Line graph
% x                       Height
0                         610.1701842369805
2.3022181212578358E-4     610.0363079845328
4.5999325066962656E-4     609.8743899172679
6.894940081029028E-4      609.6844300351861
9.189044129547812E-4      609.4664283382871
0.001148405006736289      609.2203848265713
0.0013781761183620641     608.9462995000383
0.001608397441069865      608.6441723586884
0.001839314118928521      607.9527618597716
0.0020697760201574002     607.2641518569757
0.002299964597801726      606.5783423503008
0.0025300619515304015     605.8953333397469
0.0027602503975112853     605.2151248253142
0.0029907120357255193     604.5377168070022
0.003221628319839081      603.8631092848115
0.0034518885683530987     602.976824289829
0.0036816980188178403     602.0824294499988
0.003911236592567028      601.1799247653207
0.004140684848157368      600.2693102357949
0.004370223557282477      599.3505858614216
0.004600033278179856      598.4237516422
0.004830293931548535      597.4888075781311
0.005060048526376791      596.3653822166995
0.005289355629682316      595.2547023901959
0.005518393850920054      594.15676809862
0.005747342428834         593.071579341972
0.00597638081262499       591.9991361202522
0.006205688240655705      590.9394384334597
0.006435443321622868      589.8924862815954
0.006665339619110656      588.762556050106
0.006894787442849326      587.6535301530874
0.007123965728649401      586.5654085905394
0.007353054043912613      585.4981913624621
0.007582232167524012      584.451878468856
0.007811679667266285      583.42646990972
0.008041575479707366      582.421965685055
0.008271887219609135      581.407997321
0.008501747728772392      580.4302664357286
0.008731337046705121      579.488773029241
0.008960835851156599      578.583517101537
0.009190425033567954      577.714498652617
0.009420285272008154      576.8817176824803
0.009650596606620833      576.0851741911274
0.009881512912836019      575.3145801637369
0.010111974573021956      574.5939332794331
0.010342163040896366      573.9232335382161
0.010572260416492441      573.3024809400858
0.010802449016030204      572.7316754850426
0.011032910939230619      572.2108171730857
0.011263827639190652      571.7399060042159
0.011494048967061755      571.2922253960948
0.011723820083820682      570.9198978221065
0.011953320682717213      570.6229232822512
0.012182731092678062      570.401301776529
0.012412231855226382      570.25503330494
0.012642003298903411      570.1841178674835
0.012872225116192546      570.1885554641601
0.013102446994778118      570.0539448677631
0.013332218499393473      570.0145292922764
0.01356171932266464       570.0703087377
0.013791129793276359      570.2212832040341
0.01402063045289555       570.4674526912787
0.014250401630592404      570.8088171994334
0.014480623019759359      571.2453767284987
0.014711539835704642      571.5222752808567
0.014942001874208778      571.880344837431
0.015172190588640395      572.3195853982221
0.01540228807899374       572.8399969632296
0.015632476661762654      573.4415795324542
0.015862938437253588      574.1243331058948
0.01609385485945594       574.8882576835523
0.016324115336228646      575.5722785618034
0.016553925013622208      576.296003647324
0.016783463813500554      577.0594329401139
0.017012912294953733      577.8625664401733
0.01724245123020976       578.7054041475025
0.01747226117803945       579.5879460621006
0.017702522059672054      580.5101921839685
0.017932276794613372      581.4319353119344
0.018161584037218948      582.3799422545408
0.018390622397267263      583.3542130117877
0.018619571113827754      584.3547475836754
0.018848609636427344      585.3815459702039
0.019077917203754128      586.4346081713727
0.019307672424828403      587.5139341871824
0.019537568573699274      588.495936633951
0.01976701624968263       589.4936120279098
0.019996194388245302      590.5069603690582
0.020225282556443316      591.5359816573967
0.020454460532815345      592.5806758929255
0.02068390788479834       593.6410430756438
0.020913803548616574      594.7170832055523
0.02114411498977932       595.5794186012916
0.021373975201947604      596.4548062466955
0.02160356422393484       597.3432461417636
0.02183306273279162       598.2447382864964
0.02206265161925901       599.1592826808939
0.02229251156070728       600.0868793249555
0.02252282259658549       601.0275282186817
0.022753738766914562      601.6394704301872
0.022984200292012823      602.2529212149518
0.023214388625279938      602.867880572975
0.023444485866429166      603.4843485042569
0.023674674331359946      604.102325008798
0.023905136119473275      604.7218100865974
0.024136052683548088      605.342803737656
0.024366274021741702      605.5631909027782
0.024596045148762867      605.784542808347
0.024825545757885373      606.0068594543625
0.02505495617806012       606.2301408408247
0.02528445695083446       606.4543869677337
0.025514228404773787      606.6795978350893
0.025744450232385536      606.9057734428917
0.025974672267095825      606.7774095510954
0.026204443926923768      606.6268294936411
0.02643394490485871       606.4540332705291
0.02666335552995085       606.2590208817592
0.026892856344233315      606.0417923273316
0.02712262767714175       605.8023476072458
0.02735284922243193       605.5406867215024
0.027583766528201624      604.8856747965913
0.027814229053652367      604.2211346198861
0.028044418253299775      603.5470661913869
0.02827451622829193       602.8634695110935
0.028504705296278778      602.1703445790065
0.028735167558720572      601.467691395125
0.028966084470753738      600.7555099594498
0.029196345605491433      599.8817598305903
0.02942615593701711       598.9772642735456
0.02965569538872289       598.0420232883157
0.029885144521236064      597.0760368749009
0.030114684108324883      596.079305033301
0.030344494710297387      595.0518277635157
0.030574756249911007      593.9936050655455
0.030804511377321087      592.8406124250422
0.031033819010118435      591.6792634607547
0.031262857758987544      590.5095581726824
0.03149180686390927       589.3314965608259
0.031720845775323685      588.1450786251854
0.031950153732830305      586.95030436576
0.032179909346355486      585.7471737825504
0.0324098051544111        584.5549012303042
0.032639252491552244      583.3710491964499
0.03286843029245836       582.1956176809875
0.0330975181233935        581.0286066839172
0.03332669576210278       579.870016205239
0.03355614277523119       578.7198462449527
0.033786038098215655      577.5780968030583
0.034016348759356954      576.4853274114303
0.03424620819605658       575.4280514056276
0.034475796445315066      574.4062687856502
0.03470529418235937       573.419979551498
0.03493488229610333       572.4691837031714
0.035164741462093585      571.55388124067
0.03539505171796626       570.6740721639939
0.035625967353597694      569.8567832379863
0.03585642834714083       569.0966137602326
0.036086616150743635      568.3935637307327
0.03631671286286018       567.7476331494868
0.03654690079812825       567.1588220164949
0.036777362054689705      566.6271303317567
0.03700827808407173       566.1525580952725
0.03723849938140827       565.7314780007235
0.03746827046781093       565.3924896178377
0.03769777103645843       565.1355929466147
0.03792718141620601       564.9607879870549
0.0381566821485052        564.8680747391584
0.03838645356182577       564.8574532029246
0.03861667534858004       564.9289233783542
0.038846895274787324      564.9132109838498
0.039076664838430766      564.9978682238897
0.03930616372759302       565.1828950984735
0.03953557226638858       565.4682916076016
0.039765070991905134      565.8540577512742
0.039994840228642616      566.3401935294906
0.040225059665450036      566.9266989422514
0.04045597761776665       567.410481293093
0.04068644078597457       567.9768139331694
0.04091663062609736       568.6256968624805
0.041146729240799984      569.3571300810266
0.04137691894925231       570.1711135888078
0.04160738185443156       571.0676473858233
0.04183829941298208       572.046731472074
0.04206856149768976       572.9791477561992
0.04229837277362926       573.9489829170611
0.04252791316640542       574.9562369546597
0.04275736323887129       576.0009098689949
0.04298690376702529       577.0830016600671
0.04321671531340127       578.2025123278758
0.04344697780296935       579.3594418724211
0.043676731016186174      580.5711535882987
0.04390603674591497       581.7924018664754
0.04413507359840861       583.0231867069516
0.04436402080919017       584.2635081097271
0.044593057824233256      585.5133660748021
0.04482236387867965       586.7727606021763
0.045052117578024006      588.0416916918499
0.045282012653644836      589.3135568860062
0.045511459262636354      590.5700776711187
0.04574063633797325       591.811254047188
0.04596972344420469       593.0370860142137
0.046198900357357554      594.2475735721964
0.046428346642361965      595.4427167211353
0.04665824123294997       596.622515461031
0.04688855484177433       597.7137280161894
0.04711841720894409       598.7829855488806
0.04734800837831597       599.8302880591043
0.04757750903201372       600.8556355468608
0.047807100065861544      601.8590280121501
0.04803696216230292       602.8404654549716
0.04826727536583021       603.7999478753262
0.048498193048686675      604.5488179156362
0.048728656077441146      605.2727737945519
0.04895884590902903       605.9718155120728
0.04918894464672031       606.6459430681991
0.04941913460997818       607.2951564629313
0.04964959790176041       607.9194556962686
0.04988051597838159       608.5188407682116
0.05011073543954296       608.7877916606027
0.0503405047004922        609.0457276588048
0.05057000345013497       609.2926487628177
0.05079941201302823       609.5285549726418
0.05102891092631677       609.7534462882772
0.05125868051417213       609.9673227097232
0.051488900464733596      610.1701842369805
