% Model:              brazing.mph
% Version:            COMSOL 5.3.0.223
% Date:               Oct 19 2018, 15:12
% Dimension:          1
% Nodes:              225
% Expressions:        1
% Description:        Line graph
% x                       Height
0                         612.2738156712551
2.3022181212578358E-4     612.1500266228428
4.5999325066962656E-4     611.9991061144511
6.894940081029028E-4      611.8210541460801
9.189044129547812E-4      611.6158707177298
0.001148405006736289      611.3835558294002
0.0013781761183620641     611.124109481091
0.001608397441069865      610.8375316728025
0.001839314118928521      610.1727426695397
0.0020697760201574002     609.5117306018684
0.002299964597801726      608.8544954697883
0.0025300619515304015     608.2010372732997
0.0027602503975112853     607.5513560124027
0.0029907120357255193     606.9054516870966
0.003221628319839081      606.2633242973823
0.0034518885683530987     605.4140929940245
0.0036816980188178403     604.5592579622266
0.003911236592567028      603.6988192019885
0.004140684848157368      602.8327767133101
0.004370223557282477      601.9611304961918
0.004600033278179856      601.0838805506329
0.004830293931548535      600.201026876634
0.005060048526376791      599.1250100188608
0.005289355629682316      598.0630930880634
0.005518393850920054      597.0152760842413
0.005747342428834         595.9815590073949
0.00597638081262499       594.9619418575244
0.006205688240655705      593.9564246346291
0.006435443321622868      592.9650073387096
0.006665339619110656      591.8855840507422
0.006894787442849326      590.8274874415828
0.007123965728649401      589.7907175112313
0.007353054043912613      588.7752742596878
0.007582232167524012      587.7811576869525
0.007811679667266285      586.808367793025
0.008041575479707366      585.8569045779057
0.008271887219609135      584.8904069461097
0.008501747728772392      583.9590031190074
0.008731337046705121      583.0626930965984
0.008960835851156599      582.2014768788832
0.009190425033567954      581.3753544658617
0.009420285272008154      580.5843258575335
0.009650596606620833      579.8283910538989
0.009881512912836019      579.0933310720523
0.010111974573021956      578.4058377078705
0.010342163040896366      577.7659109613538
0.010572260416492441      577.1735508325022
0.010802449016030204      576.6287573213159
0.011032910939230619      576.1315304277944
0.011263827639190652      575.681870151938
0.011494048967061755      575.2516122353645
0.011723820083820682      574.8927014618448
0.011953320682717213      574.6051378313786
0.012182731092678062      574.3889213439661
0.012412231855226382      574.2440519996076
0.012642003298903411      574.1705297983023
0.012872225116192546      574.1683547400509
0.013102446994778118      574.0349277534453
0.013332218499393473      573.9912610995094
0.01356171932266464       574.0373547782428
0.013791129793276359      574.1732087896454
0.01402063045289555       574.3988231337178
0.014250401630592404      574.714197810459
0.014480623019759359      575.1193328198699
0.014711539835704642      575.3725741748374
0.014942001874208778      575.7028923654533
0.015172190588640395      576.1102873917175
0.01540228807899374       576.5947592536301
0.015632476661762654      577.1563079511914
0.015862938437253588      577.7949334844006
0.01609385485945594       578.5106358532586
0.016324115336228646      579.1483332067448
0.016553925013622208      579.8245567544737
0.016783463813500554      580.539306496445
0.017012912294953733      581.2925824326588
0.01724245123020976       582.0843845631153
0.01747226117803945       582.9147128878142
0.017702522059672054      583.7835674067557
0.017932276794613372      584.6465356200353
0.018161584037218948      585.5360957052487
0.018390622397267263      586.4522476623962
0.018619571113827754      587.3949914914776
0.018848609636427344      588.3643271924933
0.019077917203754128      589.3602547654425
0.019307672424828403      590.382774210326
0.019537568573699274      591.3030588868841
0.01976701624968263       592.2409060302946
0.019996194388245302      593.1963156405577
0.020225282556443316      594.1692877176735
0.020454460532815345      595.1598222616419
0.02068390788479834       596.1679192724628
0.020913803548616574      597.1935787501363
0.02114411498977932       598.0015615484231
0.021373975201947604      598.8252691561769
0.02160356422393484       599.6647015733975
0.02183306273279162       600.5198588000849
0.02206265161925901       601.3907408362396
0.02229251156070728       602.277347681861
0.02252282259658549       603.1796793369494
0.022753738766914562      603.7502236917271
0.022984200292012823      604.3257549084681
0.023214388625279938      604.9062729871723
0.023444485866429166      605.49177792784
0.023674674331359946      606.082269730471
0.023905136119473275      606.6777483950654
0.024136052683548088      607.2782139216231
0.024366274021741702      607.4755096778381
0.024596045148762867      607.676667264408
0.024825545757885373      607.8816866813327
0.02505495617806012       608.0905679286121
0.02528445695083446       608.3033110062465
0.025514228404773787      608.5199159142355
0.025744450232385536      608.7403826525796
0.025974672267095825      608.615505205284
0.026204443926923768      608.4698959041722
0.02643394490485871       608.3035547492441
0.02666335552995085       608.1164817404999
0.026892856344233315      607.9086768779396
0.02712262767714175       607.6801401615629
0.02735284922243193       607.4308715913701
0.027583766528201624      606.8009361723601
0.027814229053652367      606.1633039287667
0.028044418253299775      605.5179748605899
0.02827451622829193       604.8649489678298
0.028504705296278778      604.2042262504866
0.028735167558720572      603.5358067085599
0.028966084470753738      602.8596903420499
0.029196345605491433      602.0308184033073
0.02942615593701711       601.1741551933484
0.02965569538872289       600.289700712173
0.029885144521236064      599.3774549597815
0.030114684108324883      598.4374179361739
0.030344494710297387      597.4695896413497
0.030574756249911007      596.4739700753094
0.030804511377321087      595.3820016242464
0.031033819010118435      594.283657707087
0.031262857758987544      593.1789383238305
0.03149180686390927       592.0678434744774
0.031720845775323685      590.9503731590278
0.031950153732830305      589.826527377481
0.032179909346355486      588.6963061298378
0.0324098051544111        587.5733055419078
0.032639252491552244      586.4592207451497
0.03286843029245836       585.3540517395636
0.0330975181233935        584.2577985251495
0.03332669576210278       583.1704611019076
0.03355614277523119       582.0920394698373
0.033786038098215655      581.0225336289394
0.034016348759356954      579.997551812357
0.03424620819605658       579.006502375111
0.034475796445315066      578.0493853172014
0.03470529418235937       577.1262006386282
0.03493488229610333       576.2369483393919
0.035164741462093585      575.3816284194917
0.03539505171796626       574.560240878928
0.035625967353597694      573.7967638442366
0.03585642834714083       573.0872712078736
0.036086616150743635      572.431762969839
0.03631671286286018       571.8302391301326
0.03654690079812825       571.2826996887547
0.036777362054689705      570.7891446457048
0.03700827808407173       570.3495740009835
0.03723849938140827       569.9595117383369
0.03746827046781093       569.6468396276972
0.03769777103645843       569.4115576690641
0.03792718141620601       569.2536658624376
0.0381566821485052        569.1731642078181
0.03838645356182577       569.1700527052051
0.03861667534858004       569.2443313545989
0.038846895274787324      569.2359330488559
0.039076664838430766      569.3221292928087
0.03930616372759302       569.5029200864569
0.03953557226638858       569.778305429801
0.039765070991905134      570.1482853228408
0.039994840228642616      570.612859765576
0.040225059665450036      571.172028758007
0.04045597761776665       571.6329002509474
0.04068644078597457       572.1717675295137
0.04091663062609736       572.7886305937059
0.041146729240799984      573.4834894435243
0.04137691894925231       574.2563440789688
0.04160738185443156       575.107194500039
0.04183829941298208       576.0360407067354
0.04206856149768976       576.9182203895788
0.04229837277362926       577.8361402127082
0.04252791316640542       578.7898001761235
0.04275736323887129       579.7792002798251
0.04298690376702529       580.8043405238129
0.04321671531340127       581.8652209080866
0.04344697780296935       582.9618414326465
0.043676731016186174      584.10835395027
0.04390603674591497       585.2644646155001
0.04413507359840861       586.4301734283363
0.04436402080919017       587.6054803887789
0.044593057824233256      588.7903854968281
0.04482236387867965       589.9848887524832
0.045052117578024006      591.1889901557448
0.045282012653644836      592.3921941707647
0.045511459262636354      593.5821087505803
0.04574063633797325       594.7587338951917
0.04596972344420469       595.9220696045987
0.046198900357357554      597.0721158788019
0.046428346642361965      598.2088727178003
0.04665824123294997       599.3323401215948
0.04688855484177433       600.3648702395162
0.04711841720894409       601.3786479148941
0.04734800837831597       602.3736731477281
0.04757750903201372       603.3499459380184
0.047807100065861544      604.3074662857654
0.04803696216230292       605.2462341909682
0.04826727536583021       606.1662496536273
0.048498193048686675      606.8742644923531
0.048728656077441146      607.5614197075905
0.04895884590902903       608.2277152993395
0.04918894464672031       608.8731512676002
0.04941913460997818       609.4977276123727
0.04964959790176041       610.1014443336568
0.04988051597838159       610.6843014314526
0.05011073543954296       610.9358299117577
0.0503405047004922        611.1792067195707
0.05057000345013497       611.4144318548917
0.05079941201302823       611.6415053177205
0.05102891092631677       611.8604271080577
0.05125868051417213       612.0711972259023
0.051488900464733596      612.2738156712551
