% Model:              brazing.mph
% Version:            COMSOL 5.3.0.223
% Date:               Oct 19 2018, 15:03
% Dimension:          1
% Nodes:              225
% Expressions:        1
% Description:        Line graph
% x                       Height
0                         670.3735205875724
2.3022181212578358E-4     670.2343058712232
4.5999325066962656E-4     670.0675084121381
6.894940081029028E-4      669.8731282103165
9.189044129547812E-4      669.651165265759
0.001148405006736289      669.4016195784657
0.0013781761183620641     669.1244911484357
0.001608397441069865      668.8197799756699
0.001839314118928521      668.1134819313112
0.0020697760201574002     667.4106573293933
0.002299964597801726      666.7113061699163
0.0025300619515304015     666.0154284528802
0.0027602503975112853     665.3230241782853
0.0029907120357255193     664.6340933461311
0.003221628319839081      663.9486359564179
0.0034518885683530987     663.0457245279147
0.0036816980188178403     662.1337149692623
0.003911236592567028      661.2126072804602
0.004140684848157368      660.2824014615088
0.004370223557282477      659.3430975124083
0.004600033278179856      658.394695433158
0.004830293931548535      657.4371952237585
0.005060048526376791      656.2929393928986
0.005289355629682316      655.1611346261105
0.005518393850920054      654.0417809233942
0.005747342428834         652.9348782847496
0.00597638081262499       651.8404267101772
0.006205688240655705      650.7584261996761
0.006435443321622868      649.6888767532472
0.006665339619110656      648.5383713554244
0.006894787442849326      647.4087110259039
0.007123965728649401      646.2998957646856
0.007353054043912613      645.2119255717695
0.007582232167524012      644.1448004471558
0.007811679667266285      643.0985203908441
0.008041575479707366      642.0730854028347
0.008271887219609135      641.0409992694529
0.008501747728772392      640.0455494989625
0.008731337046705121      639.0867360913633
0.008960835851156599      638.1645590466554
0.009190425033567954      637.2790183648393
0.009420285272008154      636.4301140459141
0.009650596606620833      635.6178460898806
0.009881512912836019      634.8340224095983
0.010111974573021956      634.1009195935593
0.010342163040896366      633.4185376417635
0.010572260416492441      632.786876554211
0.010802449016030204      632.205936330902
0.011032910939230619      631.675716971836
0.011263827639190652      631.1962184770134
0.011494048967061755      630.7407564311287
0.011723820083820682      630.3627861365965
0.011953320682717213      630.0623075934167
0.012182731092678062      629.8393208015895
0.012412231855226382      629.693825761115
0.012642003298903411      629.6258224719929
0.012872225116192546      629.6353109342234
0.013102446994778118      629.4938879970167
0.013332218499393473      629.4514025709748
0.01356171932266464       629.5078546560974
0.013791129793276359      629.6632442523846
0.01402063045289555       629.917571359837
0.014250401630592404      630.2708359784536
0.014480623019759359      630.7230381082352
0.014711539835704642      631.0020967868502
0.014942001874208778      631.3655798813835
0.015172190588640395      631.8134873918348
0.01540228807899374       632.3458193182042
0.015632476661762654      632.9625756604921
0.015862938437253588      633.6637564186979
0.01609385485945594       634.449361592822
0.016324115336228646      635.1483361825444
0.016553925013622208      635.8877089525087
0.016783463813500554      636.6674799027145
0.017012912294953733      637.487649033162
0.01724245123020976       638.3482163438515
0.01747226117803945       639.2491818347823
0.017702522059672054      640.190545505955
0.017932276794613372      641.1342902513002
0.018161584037218948      642.1044345403419
0.018390622397267263      643.10097837308
0.018619571113827754      644.1239217495145
0.018848609636427344      645.1732646696457
0.019077917203754128      646.249007133473
0.019307672424828403      647.351149140997
0.019537568573699274      648.3580816647268
0.01976701624968263       649.3802672526831
0.019996194388245302      650.4177059048661
0.020225282556443316      651.4703976212755
0.020454460532815345      652.5383424019119
0.02068390788479834       653.6215402467743
0.020913803548616574      654.7199911558635
0.02114411498977932       655.6050076820444
0.021373975201947604      656.50238889656
0.02160356422393484       657.4121347994098
0.02183306273279162       658.3342453905944
0.02206265161925901       659.2687206701139
0.02229251156070728       660.2155606379675
0.02252282259658549       661.1747652941559
0.022753738766914562      661.8030530496831
0.022984200292012823      662.4319727890565
0.023214388625279938      663.0615245122762
0.023444485866429166      663.6917082193422
0.023674674331359946      664.3225239102546
0.023905136119473275      664.953971585013
0.024136052683548088      665.5860512436179
0.024366274021741702      665.8122584348332
0.024596045148762867      666.0392420590497
0.024825545757885373      666.2670021162672
0.02505495617806012       666.4955386064861
0.02528445695083446       666.7248515297065
0.025514228404773787      666.9549408859277
0.025744450232385536      667.1858066751504
0.025974672267095825      667.0477660601694
0.026204443926923768      666.8880593643086
0.02643394490485871       666.7066865875674
0.02666335552995085       666.5036477299462
0.026892856344233315      666.2789427914454
0.02712262767714175       666.0325717720642
0.02735284922243193       665.7645346718031
0.027583766528201624      665.0900809001387
0.027814229053652367      664.4068988251252
0.028044418253299775      663.714988446762
0.02827451622829193       663.0143497650499
0.028504705296278778      662.3049827799888
0.028735167558720572      661.5868874915781
0.028966084470753738      660.8600638998183
0.029196345605491433      659.9660744223809
0.02942615593701711       659.0404219753738
0.02965569538872289       658.0831065587968
0.029885144521236064      657.09412817265
0.030114684108324883      656.0734868169338
0.030344494710297387      655.0211824916474
0.030574756249911007      653.9372151967915
0.030804511377321087      652.760619490316
0.031033819010118435      651.5751822188798
0.031262857758987544      650.3809033824825
0.03149180686390927       649.1777829811242
0.031720845775323685      647.9658210148054
0.031950153732830305      646.7450174835253
0.032179909346355486      645.5153723872846
0.0324098051544111        644.2995513332452
0.032639252491552244      643.0919688583189
0.03286843029245836       641.8926249625055
0.0330975181233935        640.7015196458052
0.03332669576210278       639.5186529082184
0.03355614277523119       638.3440247497442
0.033786038098215655      637.1776351703834
0.034016348759356954      636.0639818605273
0.03424620819605658       634.9861213915284
0.034475796445315066      633.9440537633864
0.03470529418235937       632.9377789761014
0.03493488229610333       631.9672970296739
0.035164741462093585      631.032607924103
0.03539505171796626       630.1337116593893
0.035625967353597694      629.3003817923293
0.03585642834714083       628.5249320433138
0.036086616150743635      627.807362412343
0.03631671286286018       627.1476728994169
0.03654690079812825       626.5458635045356
0.036777362054689705      626.0019342276986
0.03700827808407173       625.5158850689065
0.03723849938140827       625.0845715968355
0.03746827046781093       624.7375707687321
0.03769777103645843       624.4748825845963
0.03792718141620601       624.2965070444283
0.0381566821485052        624.2024441482281
0.03838645356182577       624.1926938959954
0.03861667534858004       624.2672562877304
0.038846895274787324      624.2429540184519
0.039076664838430766      624.322889402028
0.03930616372759302       624.5070624384583
0.03953557226638858       624.795473127743
0.039765070991905134      625.1881214698826
0.039994840228642616      625.6850074648762
0.040225059665450036      626.2861311127245
0.04045597761776665       626.7710568433346
0.04068644078597457       627.3418706127158
0.04091663062609736       627.9985724208676
0.041146729240799984      628.7411622677904
0.04137691894925231       629.5696401534844
0.04160738185443156       630.484006077949
0.04183829941298208       631.4842600411846
0.04206856149768976       632.4315455051577
0.04229837277362926       633.4169099266309
0.04252791316640542       634.440353305604
0.04275736323887129       635.5018756420772
0.04298690376702529       636.6014769360506
0.04321671531340127       637.7391571875238
0.04344697780296935       638.9149163964972
0.043676731016186174      640.1488580626236
0.04390603674591497       641.3923186290605
0.04413507359840861       642.6452980958079
0.04436402080919017       643.9077964628656
0.044593057824233256      645.1798137302341
0.04482236387867965       646.4613498979126
0.045052117578024006      647.7524049659017
0.045282012653644836      649.0496710845301
0.045511459262636354      650.3310851465034
0.04574063633797325       651.5966471518215
0.04596972344420469       652.8463571004844
0.046198900357357554      654.0802149924921
0.046428346642361965      655.2982208278444
0.04665824123294997       656.5003746065418
0.04688855484177433       657.6155567489441
0.04711841720894409       658.7079872986984
0.04734800837831597       659.7776662558047
0.04757750903201372       660.824593620263
0.047807100065861544      661.8487693920737
0.04803696216230292       662.850193571236
0.04826727536583021       663.8288661577506
0.048498193048686675      664.5962889284219
0.048728656077441146      665.3379304511318
0.04895884590902903       666.0537907258798
0.04918894464672031       666.7438697526662
0.04941913460997818       667.4081675314911
0.04964959790176041       668.046684062354
0.04988051597838159       668.6594193452553
0.05011073543954296       668.9383756915829
0.0503405047004922        669.2059704578166
0.05057000345013497       669.462203643956
0.05079941201302823       669.7070752500013
0.05102891092631677       669.9405852759526
0.05125868051417213       670.1627337218094
0.051488900464733596      670.3735205875724
