% Model:              brazing.mph
% Version:            COMSOL 5.3.0.223
% Date:               Oct 19 2018, 14:38
% Dimension:          1
% Nodes:              225
% Expressions:        1
% Description:        Line graph
% x                       Height
0                         659.5990141159332
2.3022181212578358E-4     659.4780005835754
4.5999325066962656E-4     659.3255233872277
6.894940081029028E-4      659.1415825268903
9.189044129547812E-4      658.926178002563
0.001148405006736289      658.6793098142463
0.0013781761183620641     658.4009779619394
0.001608397441069865      658.0911824456429
0.001839314118928521      657.4067939780552
0.0020697760201574002     656.722930540066
0.002299964597801726      656.0395921316754
0.0025300619515304015     655.3567787528833
0.0027602503975112853     654.67449040369
0.0029907120357255193     653.992727084095
0.003221628319839081      653.3114887940986
0.0034518885683530987     652.4228049331809
0.0036816980188178403     651.5266881812413
0.003911236592567028      650.623138538279
0.004140684848157368      649.7121560042948
0.004370223557282477      648.7937405792887
0.004600033278179856      647.8678922632599
0.004830293931548535      646.9346110562093
0.005060048526376791      645.8067653635686
0.005289355629682316      644.6924537372731
0.005518393850920054      643.5916761773227
0.005747342428834         642.5044326837176
0.00597638081262499       641.430723256458
0.006205688240655705      640.3705478955432
0.006435443321622868      639.3239066009738
0.006665339619110656      638.1887518126889
0.006894787442849326      637.075613943125
0.007123965728649401      635.9844929922815
0.007353054043912613      634.9153889601588
0.007582232167524012      633.8683018467572
0.007811679667266285      632.8432316520759
0.008041575479707366      631.8401783761157
0.008271887219609135      630.8231791391205
0.008501747728772392      629.8431924151467
0.008731337046705121      628.9002182041943
0.008960835851156599      627.9942565062634
0.009190425033567954      627.1253073213542
0.009420285272008154      626.293370649466
0.009650596606620833      625.4984464905997
0.009881512912836019      624.7263924866398
0.010111974573021956      624.0048703321737
0.010342163040896366      623.3338800272014
0.010572260416492441      622.7134215717231
0.010802449016030204      622.1434949657389
0.011032910939230619      621.6241002092481
0.011263827639190652      621.1552373022515
0.011494048967061755      620.7087853641092
0.011723820083820682      620.3370762786398
0.011953320682717213      620.0401100458433
0.012182731092678062      619.8178866657202
0.012412231855226382      619.6704061382701
0.012642003298903411      619.5976684634928
0.012872225116192546      619.5996736413888
0.013102446994778118      619.4728621897791
0.013332218499393473      619.4393179614515
0.01356171932266464       619.4990409564058
0.013791129793276359      619.6520311746422
0.01402063045289555       619.8982886161609
0.014250401630592404      620.2378132809615
0.014480623019759359      620.6706051690444
0.014711539835704642      620.9542617552174
0.014942001874208778      621.3177788557621
0.015172190588640395      621.7611564706784
0.01540228807899374       622.2843945999666
0.015632476661762654      622.887493243627
0.015862938437253588      623.5704524016586
0.01609385485945594       624.3332720740623
0.016324115336228646      625.0201554377512
0.016553925013622208      625.7472313568604
0.016783463813500554      626.5144998313898
0.017012912294953733      627.3219608613394
0.01724245123020976       628.1696144467098
0.01747226117803945       629.0574605874999
0.017702522059672054      629.9854992837105
0.017932276794613372      630.9086208890733
0.018161584037218948      631.858924282375
0.018390622397267263      632.8364094636155
0.018619571113827754      633.8410764327948
0.018848609636427344      634.8729251899133
0.019077917203754128      635.9319557349702
0.019307672424828403      637.0181680679663
0.019537568573699274      638.0013713218174
0.01976701624968263       639.0013009115657
0.019996194388245302      640.0179568372115
0.020225282556443316      641.0513390987547
0.020454460532815345      642.1014476961956
0.02068390788479834       643.1682826295333
0.020913803548616574      644.2518438987687
0.02114411498977932       645.1158263368023
0.021373975201947604      645.993500370631
0.02160356422393484       646.8848660002543
0.02183306273279162       647.7899232256726
0.02206265161925901       648.7086720468861
0.02229251156070728       649.6411124638943
0.02252282259658549       650.5872444766975
0.022753738766914562      651.1992279988748
0.022984200292012823      651.8131964379374
0.023214388625279938      652.4291497938857
0.023444485866429166      653.0470880667197
0.023674674331359946      653.6670112564394
0.023905136119473275      654.2889193630443
0.024136052683548088      654.9128123865352
0.024366274021741702      655.1325618092485
0.024596045148762867      655.3520562788585
0.024825545757885373      655.5712957953647
0.02505495617806012       655.7902803587673
0.02528445695083446       656.0090099690666
0.025514228404773787      656.2274846262619
0.025744450232385536      656.4457043303538
0.025974672267095825      656.3230729650029
0.026204443926923768      656.1747630026499
0.02643394490485871       656.0007744432951
0.02666335552995085       655.8011072869383
0.026892856344233315      655.5757615335798
0.02712262767714175       655.324737183219
0.02735284922243193       655.0480342358566
0.027583766528201624      654.394430840285
0.027814229053652367      653.7287993227824
0.028044418253299775      653.0511396833484
0.02827451622829193       652.3614519219831
0.028504705296278778      651.6597360386868
0.028735167558720572      650.945992033459
0.028966084470753738      650.2202199063001
0.029196345605491433      649.3414531107437
0.02942615593701711       648.4319896567164
0.02965569538872289       647.4918295442179
0.029885144521236064      646.5209727732484
0.030114684108324883      645.5194193438083
0.030344494710297387      644.4871692558967
0.030574756249911007      643.4242225095144
0.030804511377321087      642.2625595124389
0.031033819010118435      641.0934103259896
0.031262857758987544      639.916774950166
0.03149180686390927       638.7326533849687
0.031720845775323685      637.5410456303978
0.031950153732830305      636.3419516864526
0.032179909346355486      635.1353715531337
0.0324098051544111        633.9343494205827
0.032639252491552244      632.7428808234426
0.03286843029245836       631.5609657617132
0.0330975181233935        630.3886042353947
0.03332669576210278       629.2257962444875
0.03355614277523119       628.0725417889907
0.033786038098215655      626.928840868905
0.034016348759356954      625.830092013999
0.03424620819605658       624.7675629782386
0.034475796445315066      623.7412537616241
0.03470529418235937       622.7511643641553
0.03493488229610333       621.7972947858326
0.035164741462093585      620.8796450266555
0.03539505171796626       619.9982150866242
0.035625967353597694      619.1766093170305
0.03585642834714083       618.4126390864598
0.036086616150743635      617.7063043949119
0.03631671286286018       617.057605242387
0.03654690079812825       616.4665416288854
0.036777362054689705      615.9331135544062
0.03700827808407173       615.4573210189503
0.03723849938140827       615.0343256300218
0.03746827046781093       614.6929602213476
0.03769777103645843       614.4332247929274
0.03792718141620601       614.2551193447615
0.0381566821485052        614.1586438768501
0.03838645356182577       614.1437983891924
0.03861667534858004       614.2105828817892
0.038846895274787324      614.1984150391139
0.039076664838430766      614.2851143543752
0.03930616372759302       614.4706808275732
0.03953557226638858       614.7551144587079
0.039765070991905134      615.1384152477797
0.039994840228642616      615.6205831947877
0.040225059665450036      616.2016182997327
0.04045597761776665       616.688416157618
0.04068644078597457       617.2567439800339
0.04091663062609736       617.9066017669801
0.041146729240799984      618.6379895184566
0.04137691894925231       619.4509072344638
0.04160738185443156       620.345354915001
0.04183829941298208       621.3213325600688
0.04206856149768976       622.2536494803644
0.04229837277362926       623.2239780616928
0.04252791316640542       624.2323183040539
0.04275736323887129       625.2786702074478
0.04298690376702529       626.3630337718748
0.04321671531340127       627.4854089973343
0.04344697780296935       628.6457958838266
0.043676731016186174      629.857268424652
0.04390603674591497       631.0792163474828
0.04413507359840861       632.3116396523184
0.04436402080919017       633.5545383391591
0.044593057824233256      634.8079124080052
0.04482236387867965       636.0717618588561
0.045052117578024006      637.3460866917122
0.045282012653644836      638.6185195353833
0.045511459262636354      639.8768224595138
0.04574063633797325       641.1209954641039
0.04596972344420469       642.3510385491537
0.046198900357357554      643.5669517146636
0.046428346642361965      644.7687349606325
0.04665824123294997       645.9563882870614
0.04688855484177433       647.0505665783733
0.04711841720894409       648.1236415911511
0.04734800837831597       649.1756133253947
0.04757750903201372       650.2064817811041
0.047807100065861544      651.2162469582797
0.04803696216230292       652.2049088569208
0.04826727536583021       653.172467477028
0.048498193048686675      653.9248901232689
0.048728656077441146      654.6531460448005
0.04895884590902903       655.3572352416221
0.04918894464672031       656.0371577137344
0.04941913460997818       656.6929134611373
0.04964959790176041       657.3245024838304
0.04988051597838159       657.9319247818141
0.05011073543954296       658.2064371028816
0.0503405047004922        658.4688305233133
0.05057000345013497       658.7191050431088
0.05079941201302823       658.9572606622685
0.05102891092631677       659.1832973807929
0.05125868051417213       659.3972151986808
0.051488900464733596      659.5990141159332
