% Model:              brazing.mph
% Version:            COMSOL 5.3.0.223
% Date:               Oct 19 2018, 15:01
% Dimension:          1
% Nodes:              225
% Expressions:        1
% Description:        Line graph
% x                       Height
0                         698.4394957247459
2.3022181212578358E-4     698.2961671256287
4.5999325066962656E-4     698.1233904305818
6.894940081029028E-4      697.9211656396058
9.189044129547812E-4      697.6894927527006
0.001148405006736289      697.4283717698663
0.0013781761183620641     697.1378026911025
0.001608397441069865      696.8177855164095
0.001839314118928521      696.0915472842667
0.0020697760201574002     695.3674043373933
0.002299964597801726      694.6453566757891
0.0025300619515304015     693.9254042994543
0.0027602503975112853     693.2075472083891
0.0029907120357255193     692.4917854025929
0.003221628319839081      691.7781188820662
0.0034518885683530987     690.843806610598
0.0036816980188178403     689.8993084288714
0.003911236592567028      688.9446243368866
0.004140684848157368      687.9797543346435
0.004370223557282477      687.0046984221426
0.004600033278179856      686.0194565993831
0.004830293931548535      685.0240288663657
0.005060048526376791      683.840232634254
0.005289355629682316      682.6685406189014
0.005518393850920054      681.508952820308
0.005747342428834         680.3614692384738
0.00597638081262499       679.2260898733991
0.006205688240655705      678.1028147250831
0.006435443321622868      676.9916437935267
0.006665339619110656      675.7990193267548
0.006894787442849326      674.6274678308669
0.007123965728649401      673.4769893058625
0.007353054043912613      672.3475837517421
0.007582232167524012      671.239251168506
0.007811679667266285      670.1519915561532
0.008041575479707366      669.0858049146847
0.008271887219609135      668.0135227602673
0.008501747728772392      666.9787900052855
0.008731337046705121      665.981606649739
0.008960835851156599      665.0219726936281
0.009190425033567954      664.0998881369529
0.009420285272008154      663.2153529797131
0.009650596606620833      662.3683672219089
0.009881512912836019      661.5509340391424
0.010111974573021956      660.7857031075038
0.010342163040896366      660.0726744269928
0.010572260416492441      659.4118479976099
0.010802449016030204      658.8032238193551
0.011032910939230619      658.246801892228
0.011263827639190652      657.7425822162289
0.011494048967061755      657.263693281663
0.011723820083820682      656.864394492555
0.011953320682717213      656.5446858489049
0.012182731092678062      656.3045673507128
0.012412231855226382      656.144038997979
0.012642003298903411      656.0631007907028
0.012872225116192546      656.0617527288848
0.013102446994778118      655.9075349148486
0.013332218499393473      655.8548032290337
0.01356171932266464       655.9035576714399
0.013791129793276359      656.0537982420674
0.01402063045289555       656.3055249409163
0.014250401630592404      656.6587377679859
0.014480623019759359      657.1134367232771
0.014711539835704642      657.3931417867408
0.014942001874208778      657.759474389167
0.015172190588640395      658.2124345305557
0.01540228807899374       658.7520222109071
0.015632476661762654      659.3782374302214
0.015862938437253588      660.0910801884977
0.01609385485945594       660.8905504857369
0.016324115336228646      661.6030227348472
0.016553925013622208      662.3570954062254
0.016783463813500554      663.1527684998714
0.017012912294953733      663.9900420157853
0.01724245123020976       664.8689159539673
0.01747226117803945       665.7893903144166
0.017702522059672054      666.751465097134
0.017932276794613372      667.7172099707168
0.018161584037218948      668.7100721239966
0.018390622397267263      669.7300515569736
0.018619571113827754      670.7771482696478
0.018848609636427344      671.8513622620192
0.019077917203754128      672.9526935340874
0.019307672424828403      674.0811420858529
0.019537568573699274      675.1145441795672
0.01976701624968263       676.1632891264884
0.019996194388245302      677.2273769266167
0.020225282556443316      678.3068075799521
0.020454460532815345      679.4015810864947
0.02068390788479834       680.5116974462443
0.020913803548616574      681.637156659201
0.02114411498977932       682.5479453743869
0.021373975201947604      683.470701690904
0.02160356422393484       684.4054256087522
0.02183306273279162       685.3521171279316
0.02206265161925901       686.3107762484424
0.02229251156070728       687.2814029702839
0.02252282259658549       688.2639972934569
0.022753738766914562      688.9130461988618
0.022984200292012823      689.5618458029271
0.023214388625279938      690.2103961056523
0.023444485866429166      690.8586971070374
0.023674674331359946      691.506748807083
0.023905136119473275      692.1545512057882
0.024136052683548088      692.8021043031536
0.024366274021741702      693.0400557129092
0.024596045148762867      693.2777325585643
0.024825545757885373      693.5151348401184
0.02505495617806012       693.7522625575717
0.02528445695083446       693.9891157109244
0.025514228404773787      694.2256943001759
0.025744450232385536      694.4619983253268
0.025974672267095825      694.3231341895457
0.026204443926923768      694.1615451264239
0.02643394490485871       693.9772311359611
0.02666335552995085       693.7701922181578
0.026892856344233315      693.5404283730139
0.02712262767714175       693.2879396005291
0.02735284922243193       693.0127259007036
0.027583766528201624      692.3252777206754
0.027814229053652367      691.6282950933924
0.028044418253299775      690.9217780188537
0.02827451622829193       690.2057264970603
0.028504705296278778      689.4801405280118
0.028735167558720572      688.7450201117077
0.028966084470753738      688.0003652481488
0.029196345605491433      687.085561105673
0.02942615593701711       686.1381871193162
0.02965569538872289       685.1582432890781
0.029885144521236064      684.1457296149589
0.030114684108324883      683.1006460969588
0.030344494710297387      682.0229927350773
0.030574756249911007      680.9127695293148
0.030804511377321087      679.7091390677239
0.031033819010118435      678.4964554063467
0.031262857758987544      677.2747185451832
0.03149180686390927       676.0439284842334
0.031720845775323685      674.8040852234979
0.031950153732830305      673.5551887629755
0.032179909346355486      672.2972391026672
0.0324098051544111        671.0536087882061
0.032639252491552244      669.8186328289754
0.03286843029245836       668.5923112249752
0.0330975181233935        667.3746439762053
0.03332669576210278       666.1656310826663
0.03355614277523119       664.9652725443574
0.033786038098215655      663.7735683612792
0.034016348759356954      662.6360797321125
0.03424620819605658       661.5355512750655
0.034475796445315066      660.4719829901379
0.03470529418235937       659.4453748773299
0.03493488229610333       658.4557269366417
0.035164741462093585      657.5030391680726
0.03539505171796626       656.5873115716233
0.035625967353597694      655.7389069547319
0.03585642834714083       654.950156694313
0.036086616150743635      654.2210607903662
0.03631671286286018       653.5516192428918
0.03654690079812825       652.9418320518902
0.036777362054689705      652.3916992173605
0.03700827808407173       651.9012207393034
0.03723849938140827       651.4673092054667
0.03746827046781093       651.1199124841517
0.03769777103645843       650.8590305753586
0.03792718141620601       650.6846634790874
0.0381566821485052        650.5968111953382
0.03838645356182577       650.5954737241107
0.03861667534858004       650.6806510654052
0.038846895274787324      650.6668541733737
0.039076664838430766      650.7597025842836
0.03930616372759302       650.9591962981344
0.03953557226638858       651.2653353149269
0.039765070991905134      651.6781196346607
0.039994840228642616      652.1975492573355
0.040225059665450036      652.8236241829518
0.04045597761776665       653.3335039754749
0.04068644078597457       653.9311544135637
0.04091663062609736       654.6165754972182
0.041146729240799984      655.3897672264385
0.04137691894925231       656.2507296012246
0.04160738185443156       657.1994626215762
0.04183829941298208       658.2359662874937
0.04206856149768976       659.2200070677625
0.04229837277362926       660.2430432816535
0.04252791316640542       661.3050749291672
0.04275736323887129       662.4061020103034
0.04298690376702529       663.5461245250625
0.04321671531340127       664.7251424734437
0.04344697780296935       665.9431558554477
0.043676731016186174      667.2201236597302
0.04390603674591497       668.5067510255873
0.04413507359840861       669.8030379530192
0.04436402080919017       671.1089844420256
0.044593057824233256      672.4245904926073
0.04482236387867965       673.7498561047631
0.045052117578024006      675.084781278494
0.045282012653644836      676.4258830845816
0.045511459262636354      677.7504283398066
0.04574063633797325       679.058417044168
0.04596972344420469       680.3498491976665
0.046198900357357554      681.6247248003021
0.046428346642361965      682.8830438520744
0.04665824123294997       684.1248063529838
0.04688855484177433       685.2781942461967
0.04711841720894409       686.407470216364
0.04734800837831597       687.512634263486
0.04757750903201372       688.5936863875625
0.047807100065861544      689.6506265885939
0.04803696216230292       690.6834548665796
0.04826727536583021       691.6921712215202
0.048498193048686675      692.4870139937082
0.048728656077441146      693.254263045827
0.04895884590902903       693.9939183778761
0.04918894464672031       694.7059799898557
0.04941913460997818       695.3904478817664
0.04964959790176041       696.0473220536071
0.04988051597838159       696.6766025053787
0.05011073543954296       696.9685322325173
0.0503405047004922        697.2470993467701
0.05057000345013497       697.5123038481369
0.05079941201302823       697.7641457366179
0.05102891092631677       698.0026250122132
0.05125868051417213       698.2277416749224
0.051488900464733596      698.4394957247459
