% Model:              brazing.mph
% Version:            COMSOL 5.3.0.223
% Date:               Oct 19 2018, 14:35
% Dimension:          1
% Nodes:              225
% Expressions:        1
% Description:        Line graph
% x                       Height
0                         631.9585039986914
2.3022181212578358E-4     631.8356132006809
4.5999325066962656E-4     631.6841242475566
6.894940081029028E-4      631.5040371393184
9.189044129547812E-4      631.2953518759662
0.001148405006736289      631.0580684575003
0.0013781761183620641     630.7921868839202
0.001608397441069865      630.4977071552264
0.001839314118928521      629.8250475946166
0.0020697760201574002     629.1551485897484
0.002299964597801726      628.4880101406214
0.0025300619515304015     627.8236322472359
0.0027602503975112853     627.1620149095919
0.0029907120357255193     626.503158127689
0.003221628319839081      625.8470619015277
0.0034518885683530987     624.9828138296552
0.0036816980188178403     624.112218395792
0.003911236592567028      623.235275599938
0.004140684848157368      622.3519854420933
0.004370223557282477      621.4623479222581
0.004600033278179856      620.566363040432
0.004830293931548535      619.6640307966152
0.005060048526376791      618.568313781703
0.005289355629682316      617.4865269451209
0.005518393850920054      616.4186702868687
0.005747342428834         615.3647438069468
0.00597638081262499       614.3247475053552
0.006205688240655705      613.2986813820932
0.006435443321622868      612.2865454371615
0.006665339619110656      611.1862984164553
0.006894787442849326      610.1076739201714
0.007123965728649401      609.0506719483093
0.007353054043912613      608.0152925008692
0.007582232167524012      607.0015355778515
0.007811679667266285      606.0094011792555
0.008041575479707366      605.0388893050819
0.008271887219609135      604.0539727207085
0.008501747728772392      603.1049041725141
0.008731337046705121      602.1916836604989
0.008960835851156599      601.3143111846626
0.009190425033567954      600.4727867450058
0.009420285272008154      599.6671103415276
0.009650596606620833      598.8972819742287
0.009881512912836019      598.1491478885912
0.010111974573021956      597.449725923955
0.010342163040896366      596.7990160803201
0.010572260416492441      596.1970183576866
0.010802449016030204      595.6437327560546
0.011032910939230619      595.1391592754238
0.011263827639190652      594.6832979157945
0.011494048967061755      594.2479296812937
0.011723820083820682      593.8852697100333
0.011953320682717213      593.5953180020132
0.012182731092678062      593.3780745572333
0.012412231855226382      593.2335393756941
0.012642003298903411      593.161712457395
0.012872225116192546      593.1625938023363
0.013102446994778118      593.032177354804
0.013332218499393473      592.9930315729596
0.01356171932266464       593.0451564568027
0.013791129793276359      593.1885520063337
0.01402063045289555       593.4232182215529
0.014250401630592404      593.7491551024593
0.014480623019759359      594.1663626490539
0.014711539835704642      594.4316644396292
0.014942001874208778      594.775284952541
0.015172190588640395      595.197224187789
0.01540228807899374       595.6974821453732
0.015632476661762654      596.2760588252941
0.015862938437253588      596.9329542275509
0.01609385485945594       597.6681683521443
0.016324115336228646      598.3255167113875
0.016553925013622208      599.0220420202186
0.016783463813500554      599.757744278637
0.017012912294953733      600.5326234866432
0.01724245123020976       601.3466796442375
0.01747226117803945       602.199912751419
0.017702522059672054      603.0923228081884
0.017932276794613372      603.9792617913305
0.018161584037218948      604.8930700721976
0.018390622397267263      605.8337476507901
0.018619571113827754      606.801294527108
0.018848609636427344      607.7957107011513
0.019077917203754128      608.8169961729197
0.019307672424828403      609.8651509424136
0.019537568573699274      610.8109826613958
0.01976701624968263       611.774033127969
0.019996194388245302      612.7543023421332
0.020225282556443316      613.7517903038884
0.020454460532815345      614.7664970132348
0.02068390788479834       615.798422470172
0.020913803548616574      616.8475666747004
0.02114411498977932       617.6781750442252
0.021373975201947604      618.523662613441
0.02160356422393484       619.3840293823476
0.02183306273279162       620.259275350945
0.02206265161925901       621.1494005192336
0.02229251156070728       622.0544048872127
0.02252282259658549       622.9742884548829
0.022753738766914562      623.5609640048447
0.022984200292012823      624.1514349803739
0.023214388625279938      624.7457013814704
0.023444485866429166      625.3437632081344
0.023674674331359946      625.9456204603661
0.023905136119473275      626.5512731381648
0.024136052683548088      627.1607212415311
0.024366274021741702      627.3656575847369
0.024596045148762867      627.5729655575298
0.024825545757885373      627.7826451599094
0.02505495617806012       627.9946963918762
0.02528445695083446       628.2091192534301
0.025514228404773787      628.4259137445708
0.025744450232385536      628.6450798652986
0.025974672267095825      628.5180601907927
0.026204443926923768      628.3685737372277
0.02643394490485871       628.196620504604
0.02666335552995085       628.0022004929211
0.026892856344233315      627.7853137021798
0.02712262767714175       627.545960132379
0.02735284922243193       627.2841397835197
0.027583766528201624      626.6422168244058
0.027814229053652367      625.9911656640816
0.028044418253299775      625.330986302547
0.02827451622829193       624.6616787398021
0.028504705296278778      623.9832429758475
0.028735167558720572      623.2956790106821
0.028966084470753738      622.5989868443068
0.029196345605491433      621.748841148257
0.02942615593701711       620.8697700408571
0.02965569538872289       619.9617735221066
0.029885144521236064      619.0248515920057
0.030114684108324883      618.0590042505547
0.030344494710297387      617.0642314977529
0.030574756249911007      616.0405333336008
0.030804511377321087      614.9200167149671
0.031033819010118435      613.7927018086128
0.031262857758987544      612.6585886145378
0.03149180686390927       611.5176771327422
0.031720845775323685      610.3699673632264
0.031950153732830305      609.2154593059893
0.032179909346355486      608.0541529610318
0.0324098051544111        606.8996498087806
0.032639252491552244      605.7543343245145
0.03286843029245836       604.6182065082335
0.0330975181233935        603.4912663599376
0.03332669576210278       602.3735138796271
0.03355614277523119       601.2649490673014
0.033786038098215655      600.165571922961
0.034016348759356954      599.1111970251545
0.03424620819605658       598.0916277958812
0.034475796445315066      597.1068642351408
0.03470529418235937       596.1569063429337
0.03493488229610333       595.2417541192601
0.035164741462093585      594.3614075641192
0.03539505171796626       593.5158666775116
0.035625967353597694      592.7290632576312
0.03585642834714083       591.9976559594854
0.036086616150743635      591.3216447830742
0.03631671286286018       590.7010297283977
0.03654690079812825       590.1358107954561
0.036777362054689705      589.6259879842487
0.03700827808407173       589.1715612947762
0.03723849938140827       588.7679102442116
0.03746827046781093       588.4433151652034
0.03769777103645843       588.1977760577518
0.03792718141620601       588.0312929218566
0.0381566821485052        587.9438657575182
0.03838645356182577       587.9354945647361
0.03861667534858004       588.0061793435107
0.038846895274787324      587.9951346646571
0.039076664838430766      588.0804235648592
0.03930616372759302       588.2620460441165
0.03953557226638858       588.5400021024291
0.039765070991905134      588.9142917397974
0.039994840228642616      589.3849149562205
0.040225059665450036      589.9518717516994
0.04045597761776665       590.4214940636278
0.04068644078597457       590.9705950319717
0.04091663062609736       591.599174656731
0.041146729240799984      592.3072329379056
0.04137691894925231       593.0947698754959
0.04160738185443156       593.9617854695014
0.04183829941298208       594.9082797199223
0.04206856149768976       595.8090321317388
0.04229837277362926       596.7464157504588
0.04252791316640542       597.720430576082
0.04275736323887129       598.7310766086089
0.04298690376702529       599.7783538480394
0.04321671531340127       600.862262294373
0.04344697780296935       601.9828019476101
0.043676731016186174      603.1539312484788
0.04390603674591497       604.3350428446001
0.04413507359840861       605.5261367359739
0.04436402080919017       606.7272129226004
0.044593057824233256      607.9382714044798
0.04482236387867965       609.1593121816113
0.045052117578024006      610.3903352539958
0.045282012653644836      611.6206057013536
0.045511459262636354      612.837319886761
0.04574063633797325       614.0404778102176
0.04596972344420469       615.2300794717236
0.046198900357357554      616.4061248712792
0.046428346642361965      617.5686140088839
0.04665824123294997       618.717546884538
0.04688855484177433       619.774897159341
0.04711841720894409       620.8125947811603
0.04734800837831597       621.8306397499962
0.04757750903201372       622.8290320658483
0.047807100065861544      623.8077717287172
0.04803696216230292       624.7668587386022
0.04826727536583021       625.7062930955038
0.048498193048686675      626.4325106934708
0.048728656077441146      627.1366771577029
0.04895884590902903       627.8187924882
0.04918894464672031       628.478856684962
0.04941913460997818       629.1168697479895
0.04964959790176041       629.7328316772815
0.04988051597838159       630.3267424728389
0.05011073543954296       630.5886482355137
0.0503405047004922        630.8409550070994
0.05057000345013497       631.0836627875959
0.05079941201302823       631.3167715770034
0.05102891092631677       631.540281375322
0.05125868051417213       631.7541921825512
0.051488900464733596      631.9585039986914
