% Model:              brazing.mph
% Version:            COMSOL 5.3.0.223
% Date:               Oct 19 2018, 15:03
% Table:              Table 3 - 
% Time (s)               Temperature (Cp_Al = 922.9, k_Al = 168.7, sigma_Al = 3.6367E7, rho_Al = 2596.5, Cp_inlet = 829.4, k_inlet = 165.1, sigma_inlet = 4.0883E7, rho_inlet = 2842.8, Cp_outlet = 872.9, k_outlet = 170.5, sigma_outlet = 4.0504E7, rho_outlet = 2870.1, Cp_outlet_sleeve = 945.1, k_outlet_sleeve = 173.4, sigma_outlet_sleeve = 3.4421E7, rho_outlet_sleeve = 2465.8, Cp_inlet_sleeve = 836, k_inlet_sleeve = 158.3, sigma_inlet_sleeve = 3.7039E7, rho_inlet_sleeve = 2493.7) (degC), Point: 60Temperature (Cp_Al = 922.9, k_Al = 168.7, sigma_Al = 3.6367E7, rho_Al = 2596.5, Cp_inlet = 829.4, k_inlet = 165.1, sigma_inlet = 4.0883E7, rho_inlet = 2842.8, Cp_outlet = 872.9, k_outlet = 170.5, sigma_outlet = 4.0504E7, rho_outlet = 2870.1, Cp_outlet_sleeve = 945.1, k_outlet_sleeve = 173.4, sigma_outlet_sleeve = 3.4421E7, rho_outlet_sleeve = 2465.8, Cp_inlet_sleeve = 836, k_inlet_sleeve = 158.3, sigma_inlet_sleeve = 3.7039E7, rho_inlet_sleeve = 2493.7) (degC), Point: 98Temperature (Cp_Al = 922.9, k_Al = 168.7, sigma_Al = 3.6367E7, rho_Al = 2596.5, Cp_inlet = 829.4, k_inlet = 165.1, sigma_inlet = 4.0883E7, rho_inlet = 2842.8, Cp_outlet = 872.9, k_outlet = 170.5, sigma_outlet = 4.0504E7, rho_outlet = 2870.1, Cp_outlet_sleeve = 945.1, k_outlet_sleeve = 173.4, sigma_outlet_sleeve = 3.4421E7, rho_outlet_sleeve = 2465.8, Cp_inlet_sleeve = 836, k_inlet_sleeve = 158.3, sigma_inlet_sleeve = 3.7039E7, rho_inlet_sleeve = 2493.7) (degC), Point: 134Temperature (Cp_Al = 922.9, k_Al = 168.7, sigma_Al = 3.6367E7, rho_Al = 2596.5, Cp_inlet = 829.4, k_inlet = 165.1, sigma_inlet = 4.0883E7, rho_inlet = 2842.8, Cp_outlet = 872.9, k_outlet = 170.5, sigma_outlet = 4.0504E7, rho_outlet = 2870.1, Cp_outlet_sleeve = 945.1, k_outlet_sleeve = 173.4, sigma_outlet_sleeve = 3.4421E7, rho_outlet_sleeve = 2465.8, Cp_inlet_sleeve = 836, k_inlet_sleeve = 158.3, sigma_inlet_sleeve = 3.7039E7, rho_inlet_sleeve = 2493.7) (degC), Point: 154Temperature (Cp_Al = 922.9, k_Al = 168.7, sigma_Al = 3.6367E7, rho_Al = 2596.5, Cp_inlet = 829.4, k_inlet = 165.1, sigma_inlet = 4.0883E7, rho_inlet = 2842.8, Cp_outlet = 872.9, k_outlet = 170.5, sigma_outlet = 4.0504E7, rho_outlet = 2870.1, Cp_outlet_sleeve = 945.1, k_outlet_sleeve = 173.4, sigma_outlet_sleeve = 3.4421E7, rho_outlet_sleeve = 2465.8, Cp_inlet_sleeve = 836, k_inlet_sleeve = 158.3, sigma_inlet_sleeve = 3.7039E7, rho_inlet_sleeve = 2493.7) (degC), Point: 172Temperature (Cp_Al = 922.9, k_Al = 168.7, sigma_Al = 3.6367E7, rho_Al = 2596.5, Cp_inlet = 829.4, k_inlet = 165.1, sigma_inlet = 4.0883E7, rho_inlet = 2842.8, Cp_outlet = 872.9, k_outlet = 170.5, sigma_outlet = 4.0504E7, rho_outlet = 2870.1, Cp_outlet_sleeve = 945.1, k_outlet_sleeve = 173.4, sigma_outlet_sleeve = 3.4421E7, rho_outlet_sleeve = 2465.8, Cp_inlet_sleeve = 836, k_inlet_sleeve = 158.3, sigma_inlet_sleeve = 3.7039E7, rho_inlet_sleeve = 2493.7) (degC), Point: 210Temperature (Cp_Al = 922.9, k_Al = 168.7, sigma_Al = 3.6367E7, rho_Al = 2596.5, Cp_inlet = 829.4, k_inlet = 165.1, sigma_inlet = 4.0883E7, rho_inlet = 2842.8, Cp_outlet = 872.9, k_outlet = 170.5, sigma_outlet = 4.0504E7, rho_outlet = 2870.1, Cp_outlet_sleeve = 945.1, k_outlet_sleeve = 173.4, sigma_outlet_sleeve = 3.4421E7, rho_outlet_sleeve = 2465.8, Cp_inlet_sleeve = 836, k_inlet_sleeve = 158.3, sigma_inlet_sleeve = 3.7039E7, rho_inlet_sleeve = 2493.7) (degC), Point: 232Temperature (Cp_Al = 922.9, k_Al = 168.7, sigma_Al = 3.6367E7, rho_Al = 2596.5, Cp_inlet = 829.4, k_inlet = 165.1, sigma_inlet = 4.0883E7, rho_inlet = 2842.8, Cp_outlet = 872.9, k_outlet = 170.5, sigma_outlet = 4.0504E7, rho_outlet = 2870.1, Cp_outlet_sleeve = 945.1, k_outlet_sleeve = 173.4, sigma_outlet_sleeve = 3.4421E7, rho_outlet_sleeve = 2465.8, Cp_inlet_sleeve = 836, k_inlet_sleeve = 158.3, sigma_inlet_sleeve = 3.7039E7, rho_inlet_sleeve = 2493.7) (degC), Point: 270
0                        21.131221391232486       21.10784400258433        21.024444451420607       21.009541029269826       21.011493873997324       21.001768550874317       21.11832801599718        21.144015026758723
3                        261.2960531068544        277.67204843692264       270.4444136455726        261.77812456234926       225.9158300150538        220.66321823557098       280.0713009471833        262.99442293237496
6                        377.4564564037287        400.19270356408185       392.8717681866119        384.1898097597584        341.07816179436077       335.75554407267396       402.3793939851331        376.9699718734355
9                        446.6382504432471        467.3878347783767        460.0167961109554        451.33040426710534       409.559053415475         404.3579896799107        469.46160525076334       444.8470312178124
12                       494.35270032690994       511.9153856268813        504.5136071783277        495.8285577799371        456.86598172356787       451.7536533509449        513.9230293831456        491.82100121145675
15                       530.6808674473203        545.2529834299969        537.831201575212         529.149383698163         492.9406872028551        487.9116498912374        547.2193908997054        527.7168281120429
18                       559.8118374509314        571.7193053776134        564.284501342585         555.6065057692941        521.9122706918031        516.9613815850586        573.6600566326503        556.6018839302226
21                       584.7311605801586        594.3198448395302        586.8762548897757        578.2020394736132        546.7257599349657        541.8464792191459        596.2440243523554        581.3777813188408
24                       607.0066384964305        614.5756525094486        607.1259776499337        598.4553122602878        568.9277489216528        564.1129011657714        616.4888748923512        603.5684864422924
27                       627.5107450450479        633.3163498210522        625.8623391624656        617.1949395489622        589.3784526653786        584.6210782276315        635.2221510804144        624.0217223885538
