% Model:              brazing.mph
% Version:            COMSOL 5.3.0.223
% Date:               Oct 19 2018, 15:01
% Table:              Table 3 - 
% Time (s)               Temperature (Cp_Al = 972.5, k_Al = 149.8, sigma_Al = 3.8852E7, rho_Al = 2521, Cp_inlet = 946.9, k_inlet = 151.5, sigma_inlet = 3.4983E7, rho_inlet = 2820.2, Cp_outlet = 959, k_outlet = 145.1, sigma_outlet = 3.539E7, rho_outlet = 2756.9, Cp_outlet_sleeve = 981, k_outlet_sleeve = 159.2, sigma_outlet_sleeve = 3.8481E7, rho_outlet_sleeve = 2767.2, Cp_inlet_sleeve = 913, k_inlet_sleeve = 153, sigma_inlet_sleeve = 3.7922E7, rho_inlet_sleeve = 2491) (degC), Point: 60Temperature (Cp_Al = 972.5, k_Al = 149.8, sigma_Al = 3.8852E7, rho_Al = 2521, Cp_inlet = 946.9, k_inlet = 151.5, sigma_inlet = 3.4983E7, rho_inlet = 2820.2, Cp_outlet = 959, k_outlet = 145.1, sigma_outlet = 3.539E7, rho_outlet = 2756.9, Cp_outlet_sleeve = 981, k_outlet_sleeve = 159.2, sigma_outlet_sleeve = 3.8481E7, rho_outlet_sleeve = 2767.2, Cp_inlet_sleeve = 913, k_inlet_sleeve = 153, sigma_inlet_sleeve = 3.7922E7, rho_inlet_sleeve = 2491) (degC), Point: 98Temperature (Cp_Al = 972.5, k_Al = 149.8, sigma_Al = 3.8852E7, rho_Al = 2521, Cp_inlet = 946.9, k_inlet = 151.5, sigma_inlet = 3.4983E7, rho_inlet = 2820.2, Cp_outlet = 959, k_outlet = 145.1, sigma_outlet = 3.539E7, rho_outlet = 2756.9, Cp_outlet_sleeve = 981, k_outlet_sleeve = 159.2, sigma_outlet_sleeve = 3.8481E7, rho_outlet_sleeve = 2767.2, Cp_inlet_sleeve = 913, k_inlet_sleeve = 153, sigma_inlet_sleeve = 3.7922E7, rho_inlet_sleeve = 2491) (degC), Point: 134Temperature (Cp_Al = 972.5, k_Al = 149.8, sigma_Al = 3.8852E7, rho_Al = 2521, Cp_inlet = 946.9, k_inlet = 151.5, sigma_inlet = 3.4983E7, rho_inlet = 2820.2, Cp_outlet = 959, k_outlet = 145.1, sigma_outlet = 3.539E7, rho_outlet = 2756.9, Cp_outlet_sleeve = 981, k_outlet_sleeve = 159.2, sigma_outlet_sleeve = 3.8481E7, rho_outlet_sleeve = 2767.2, Cp_inlet_sleeve = 913, k_inlet_sleeve = 153, sigma_inlet_sleeve = 3.7922E7, rho_inlet_sleeve = 2491) (degC), Point: 154Temperature (Cp_Al = 972.5, k_Al = 149.8, sigma_Al = 3.8852E7, rho_Al = 2521, Cp_inlet = 946.9, k_inlet = 151.5, sigma_inlet = 3.4983E7, rho_inlet = 2820.2, Cp_outlet = 959, k_outlet = 145.1, sigma_outlet = 3.539E7, rho_outlet = 2756.9, Cp_outlet_sleeve = 981, k_outlet_sleeve = 159.2, sigma_outlet_sleeve = 3.8481E7, rho_outlet_sleeve = 2767.2, Cp_inlet_sleeve = 913, k_inlet_sleeve = 153, sigma_inlet_sleeve = 3.7922E7, rho_inlet_sleeve = 2491) (degC), Point: 172Temperature (Cp_Al = 972.5, k_Al = 149.8, sigma_Al = 3.8852E7, rho_Al = 2521, Cp_inlet = 946.9, k_inlet = 151.5, sigma_inlet = 3.4983E7, rho_inlet = 2820.2, Cp_outlet = 959, k_outlet = 145.1, sigma_outlet = 3.539E7, rho_outlet = 2756.9, Cp_outlet_sleeve = 981, k_outlet_sleeve = 159.2, sigma_outlet_sleeve = 3.8481E7, rho_outlet_sleeve = 2767.2, Cp_inlet_sleeve = 913, k_inlet_sleeve = 153, sigma_inlet_sleeve = 3.7922E7, rho_inlet_sleeve = 2491) (degC), Point: 210Temperature (Cp_Al = 972.5, k_Al = 149.8, sigma_Al = 3.8852E7, rho_Al = 2521, Cp_inlet = 946.9, k_inlet = 151.5, sigma_inlet = 3.4983E7, rho_inlet = 2820.2, Cp_outlet = 959, k_outlet = 145.1, sigma_outlet = 3.539E7, rho_outlet = 2756.9, Cp_outlet_sleeve = 981, k_outlet_sleeve = 159.2, sigma_outlet_sleeve = 3.8481E7, rho_outlet_sleeve = 2767.2, Cp_inlet_sleeve = 913, k_inlet_sleeve = 153, sigma_inlet_sleeve = 3.7922E7, rho_inlet_sleeve = 2491) (degC), Point: 232Temperature (Cp_Al = 972.5, k_Al = 149.8, sigma_Al = 3.8852E7, rho_Al = 2521, Cp_inlet = 946.9, k_inlet = 151.5, sigma_inlet = 3.4983E7, rho_inlet = 2820.2, Cp_outlet = 959, k_outlet = 145.1, sigma_outlet = 3.539E7, rho_outlet = 2756.9, Cp_outlet_sleeve = 981, k_outlet_sleeve = 159.2, sigma_outlet_sleeve = 3.8481E7, rho_outlet_sleeve = 2767.2, Cp_inlet_sleeve = 913, k_inlet_sleeve = 153, sigma_inlet_sleeve = 3.7922E7, rho_inlet_sleeve = 2491) (degC), Point: 270
0                        21.131392808365092       21.10889526012579        21.024741721929445       21.009593970277933       21.011493815357653       21.00175296990517        21.119469470312197       21.14423274820689
3                        255.311299327063         268.8783282078483        261.42368452544554       252.14251026227043       216.75985488758          210.7640410907759        271.45383962951655       257.8846434301231
6                        378.56974349950576       398.319503064056         390.7636105693482        381.4629796604347        339.1478727316603        332.8433829262732        400.66301013682073       378.88201731750166
9                        456.2594574635259        472.8236144801481        465.2090133417262        455.9026634996379        416.0022894629192        409.85279547941025       475.03533972177354       455.0214504591321
12                       510.3160155209738        522.2257314614525        514.574060340951         505.2669145866671        469.5342774148569        463.4878254829275        524.3559947855899        508.11468314844944
15                       551.6421935746441        559.4079280192204        551.7305951842854        542.425867127499         510.5151029994672        504.5570619790026        561.484322833991         548.826699437299
18                       584.406981984437         588.6530759917832        580.9581133951503        571.6568606962995        543.0506871407379        537.1738667542418        590.6938444994198        581.2066186572379
21                       611.7908083840689        613.1055660388116        605.398217552241         596.1005792201547        570.2773500250003        564.4751159271137        615.122093867194         608.345582070475
24                       635.6896601291255        634.5439174727828        626.8276980234036        617.5335227579192        594.0652601559598        588.3306253354642        636.5436040187427        632.0866308538402
27                       657.2329385273847        653.9905320101036        646.2678606235993        636.9769183462602        615.5280829695894        609.8543636617168        655.9783567923528        653.5274388682528
