% Model:              brazing.mph
% Version:            COMSOL 5.3.0.223
% Date:               Oct 18 2018, 11:44
% Dimension:          1
% Nodes:              161
% Expressions:        1
% Description:        Line graph
% x                       Height
0                         639.298670156741
1.9693985890610136E-4     639.2616964351977
3.9298030043864816E-4     639.2364011963199
5.884188308682271E-4      639.222784440108
7.835557095112735E-4      639.2208461665614
9.786925881542028E-4      639.2305863756804
0.0011741311185834375     639.2520050674652
0.0013701715601154056     639.2851022419155
0.0015671114190207022     639.3298778990313
0.0017642608961497635     639.0945349413279
0.0019605081241513326     638.8565546111379
0.0021561515411346144     638.6159369084615
0.002351492352702621      638.3726818332988
0.0025468331642698894     638.1267893856495
0.0027424765812509564     637.878259565514
0.0029387238092488436     637.6270923728919
0.0031358732863727766     637.3732878077834
0.0033326885608882563     637.0142651454903
0.0035286060983021257     636.6607067380343
0.0037239228519497995     636.3126125854153
0.003918938519653848      635.9699826876333
0.004113954187357973      635.6328170446884
0.004309270941005876      635.3011156565807
0.004505188478420127      634.9748785233099
0.004702003752936137      634.6541056448764
0.004899138702461749      634.3163754088404
0.005095371599302965      633.9949991659321
0.005291000816927052      633.6899769161515
0.005486327495291825      633.4013086594986
0.005681654173656831      633.1289943959733
0.0058772833912816074     632.8730341255758
0.0060735162881239745     632.6334278483059
0.006270651237651189      632.4101755641638
0.006467582778148322      632.2372053851875
0.006663615013526554      632.0960635782537
0.006859045413116663      631.9867501433623
0.0070541741987231454     631.9092650805133
0.007249302984329781      631.8636083897065
0.007444733383920351      631.8497800709422
0.007640765619299351      631.8677801242203
0.007837697159797551      631.9176085495408
0.008034634474091872      631.9110686263713
0.008230672405352359      631.9403864008863
0.008426108448549354      632.0055618730861
0.008621242851524007      632.1065950429703
0.008816377254498534      632.2434859105391
0.009011813297695145      632.4162344757927
0.009207851228955002      632.6248407387308
0.00940478854324844       632.8693046993535
0.00960192671152544       633.1685251254225
0.00979816278359587       633.4827499150597
0.009993795147248338      633.8119790682651
0.010189124956984269      634.1562125850386
0.010384454766719743      634.5154504653802
0.010580087130370853      634.8896927092902
0.010776323202439026      635.2789393167682
0.01097346137071288       635.6831902878143
0.011170281912174305      636.0402858347758
0.011366204645540166      636.4077978184458
0.011561526547508357      636.7857262388246
0.011756547339625332      637.174071095912
0.011951568131742307      637.5728323897082
0.0121468900337105        637.9820101202131
0.012342812767076368      638.4016042874267
0.0125396333085378        638.831614891349
0.012736771215691979      639.105248576908
0.012933007030171178      639.3787207236244
0.013128639138602195      639.6520313314982
0.013323968694306592      639.9251804005291
0.013519298250011432      640.1981679307174
0.013714930358443784      640.4709939220631
0.0139111661729252        640.743658374566
0.014108304080082462      641.0161612882264
0.014305241249097643      641.0063623616924
0.014501279037039759      641.0010819056137
0.014696714938233999      641.0003199199903
0.014891849199866372      641.0040764048221
0.015086983461498874      641.0123513601092
0.015282419362693495      641.0251447858515
0.01547845715063625       641.0424566820492
0.015675394319652317      641.0642870487021
0.015872325504405583      640.700722725791
0.01606835738884011       640.3433974040262
0.016263787440706973      639.9923110834076
0.016458915880206496      639.6474637639352
0.016654044319705866      639.3088554456091
0.016849474371572262      638.9764861284292
0.017045506256006017      638.6503558123956
0.017242437440758204      638.3304644975082
0.01743957168037589       637.7877324350735
0.017635803876907424      637.2367516763608
0.01783143240066149       636.67752222137
0.018026758388388308      636.1100440701015
0.01822208437611492       635.5343172225549
0.01841771289986836       634.9503416787304
0.018613945096398854      634.3581174386279
0.018811079336015085      633.7576445022474
0.019007894687321662      633.1190704067529
0.01920381230049143       632.483022934447
0.019399129129200405      631.8495020853293
0.01959414487161704       631.2185078594001
0.01978916061403359       630.5900402566592
0.01998447744274231       629.9640992771068
0.020180395055911654      629.3406849207427
0.020377210407217645      628.719797187567
0.020574360469106157      628.160480452456
0.020770608273960874      627.6213783983942
0.020966252262493188      627.1024910253819
0.021161593642948652      626.603818333419
0.021356935023404883      626.1253603225053
0.021552579011939476      625.6671169926411
0.021748826816797996      625.2290883438263
0.021945976878691802      624.8112743760609
0.022142917141692885      624.4928073916973
0.022338957981867254      624.2160728059725
0.022534396907280062      623.9810706188864
0.02272953417907009       623.787800830439
0.02292467145086023       623.6362634406303
0.02312011037627338       623.5264584494603
0.02331615121644832       623.4583858569289
0.023513091479450195      623.4320456630363
0.023710025135207962      623.3676270989757
0.02390605945730262       623.3500819950235
0.024101491924457957      623.3794103511797
0.024296622768016963      623.4556121674442
0.024491753611575823      623.578687443817
0.02468718607873073       623.7486361802984
0.024883220400824673      623.9654583768879
0.025080154056581445      624.2291540335859
0.025277299572591536      624.5981783671418
0.025473542893039384      624.9878072281282
0.02566918243840792       625.3980406165455
0.025864519396400307      625.8288785323933
0.026059856354392216      626.2803209756719
0.026255495899759323      626.7523679463812
0.026451739220204794      627.2450194445212
0.026648884736211575      627.7582754700918
0.02684569473774919       628.3175821432603
0.027041607073256636      628.8825244607925
0.027236918672681274      629.4531024226883
0.027431929210095855      630.0293160289477
0.027626939747510428      630.6111652795709
0.027822251346935042      631.1986501745577
0.028018163682442445      631.7917707139081
0.028214973683980002      632.3905268976223
0.028412120943583204      632.9592488683218
0.028608365984047285      633.5179390440513
0.02880400723361381       634.0665974248108
0.02899934588786498       634.6052240106001
0.02919468454211669       635.1338188014194
0.029390325791684838      635.6523817972685
0.02958657083215161       636.1609129981476
0.029783718091758563      636.6594124040566
0.029980652759780888      636.9854284379811
0.030176688080480362      637.3125562390946
0.030372121537075924      637.6407958073969
0.03056725336547531       637.9701471428881
0.030762385193874833      638.300610245568
0.030957818650470807      638.6321851154369
0.031153853971170976      638.9648717524944
0.031350788639194264      639.298670156741
