% Model:              brazing.mph
% Version:            COMSOL 5.3.0.223
% Date:               Oct 18 2018, 11:44
% Dimension:          1
% Nodes:              161
% Expressions:        1
% Description:        Line graph
% x                       Height
0                         643.1379034281213
1.9693985890610136E-4     643.1055414570676
3.9298030043864816E-4     643.0840607720622
5.884188308682271E-4      643.073461373105
7.835557095112735E-4      643.073743260196
9.786925881542028E-4      643.0849064333353
0.0011741311185834375     643.1069508925227
0.0013701715601154056     643.1398766377584
0.0015671114190207022     643.1836836690424
0.0017642608961497635     642.9459813227744
0.0019605081241513326     642.7052900406338
0.0021561515411346144     642.4616098226206
0.002351492352702621      642.2149406687347
0.0025468331642698894     641.9652825789763
0.0027424765812509564     641.7126355533452
0.0029387238092488436     641.4569995918414
0.0031358732863727766     641.1983746944651
0.0033326885608882563     640.8329006797146
0.0035286060983021257     640.4730372133268
0.0037239228519497995     640.1187842953018
0.003918938519653848      639.7701419256393
0.004113954187357973      639.4271101043396
0.004309270941005876      639.0896888314026
0.004505188478420127      638.7578781068282
0.004702003752936137      638.4316779306166
0.004899138702461749      638.0874659488053
0.005095371599302965      637.7601731651673
0.005291000816927052      637.4497995797027
0.005486327495291825      637.1563451924117
0.005681654173656831      636.879810003294
0.0058772833912816074     636.6201940123498
0.0060735162881239745     636.3774972195789
0.006270651237651189      636.1517196249815
0.006467582778148322      635.9755802185564
0.006663615013526554      635.8320696360244
0.006859045413116663      635.7211878773855
0.0070541741987231454     635.6429349426398
0.007249302984329781      635.5973108317872
0.007444733383920351      635.5843155448279
0.007640765619299351      635.6039490817616
0.007837697159797551      635.6562114425884
0.008034634474091872      635.6527010957775
0.008230672405352359      635.6857416058318
0.008426108448549354      635.7553329727516
0.008621242851524007      635.8614751965366
0.008816377254498534      636.0041682771871
0.009011813297695145      636.1834122147028
0.009207851228955002      636.3992070090839
0.00940478854324844       636.6515526603303
0.00960192671152544       636.9583051416942
0.00979816278359587       637.2805137344759
0.009993795147248338      637.6181784386756
0.010189124956984269      637.9712992542932
0.010384454766719743      638.3398761813286
0.010580087130370853      638.7239092197818
0.010776323202439026      639.123398369653
0.01097346137071288       639.5383436309421
0.011170281912174305      639.9049643707788
0.011366204645540166      640.2820183105878
0.011561526547508357      640.6695054503688
0.011756547339625332      641.067425790122
0.011951568131742307      641.4757793298472
0.0121468900337105        641.8945660695448
0.012342812767076368      642.3237860092144
0.0125396333085378        642.7634391488562
0.012736771215691979      643.0447112330862
0.012933007030171178      643.3253873492486
0.013128639138602195      643.6054674973437
0.013323968694306592      643.8849516773712
0.013519298250011432      644.1638398893311
0.013714930358443784      644.4421321332237
0.0139111661729252        644.7198284090487
0.014108304080082462      644.9969287168062
0.014305241249097643      644.989437268613
0.014501279037039759      644.9854888370354
0.014696714938233999      644.9850834220732
0.014891849199866372      644.9882210237267
0.015086983461498874      644.9949016419959
0.015282419362693495      645.0051252768803
0.01547845715063625       645.0188919283804
0.015675394319652317      645.0362015964962
0.015872325504405583      644.6682361495158
0.01606835738884011       644.3054702964309
0.016263787440706973      643.9479040372415
0.016458915880206496      643.5955373719474
0.016654044319705866      643.2483703005489
0.016849474371572262      642.9064028230456
0.017045506256006017      642.5696349394378
0.017242437440758204      642.2380666497255
0.01743957168037589       641.6826094674934
0.017635803876907424      641.1185166611634
0.01783143240066149       640.5457882307356
0.018026758388388308      639.96442417621
0.01822208437611492       639.3744244975863
0.01841771289986836       638.7757891948651
0.018613945096398854      638.1685182680457
0.018811079336015085      637.5526117171286
0.019007894687321662      636.8971945055306
0.01920381230049143       636.2445327160264
0.019399129129200405      635.5946263486156
0.01959414487161704       634.9474754032985
0.01978916061403359       634.3030798800751
0.01998447744274231       633.6614397789452
0.020180395055911654      633.0225550999089
0.020377210407217645      632.3864258429663
0.020574360469106157      631.811213543899
0.020770608273960874      631.2569860756228
0.020966252262493188      630.7237434381375
0.021161593642948652      630.2114856314433
0.021356935023404883      629.7202126555401
0.021552579011939476      629.249924510428
0.021748826816797996      628.8006211961069
0.021945976878691802      628.3723027125768
0.022142917141692885      628.0431234235385
0.022338957981867254      627.7568016562053
0.022534396907280062      627.5133374105768
0.02272953417907009       627.3127306866533
0.02292467145086023       627.1549814844346
0.02312011037627338       627.040089803921
0.02331615121644832       626.9680556451121
0.023513091479450195      626.9388790080083
0.023710025135207962      626.8723417645546
0.02390605945730262       626.8537425244022
0.024101491924457957      626.8830812875511
0.024296622768016963      626.9603580540014
0.024491753611575823      627.0855728237531
0.02468718607873073       627.258725596806
0.024883220400824673      627.4798163731604
0.025080154056581445      627.748845152816
0.025277299572591536      628.1235536144869
0.025473542893039384      628.519696441637
0.02566918243840792       628.9372736342665
0.025864519396400307      629.3762851923753
0.026059856354392216      629.8367311159634
0.026255495899759323      630.3186114050309
0.026451739220204794      630.8219260595775
0.026648884736211575      631.3466750796036
0.02684569473774919       631.9171367179671
0.027041607073256636      632.4935829610424
0.027236918672681274      633.0760138088295
0.027431929210095855      633.6644292613285
0.027626939747510428      634.2588293185393
0.027822251346935042      634.8592139804618
0.028018163682442445      635.4655832470963
0.028214973683980002      636.0779371184426
0.028412120943583204      636.6590530533075
0.028608365984047285      637.2299910313232
0.02880400723361381       637.7907510524899
0.02899934588786498       638.3413331168074
0.02919468454211669       638.8817372242758
0.029390325791684838      639.4119633748951
0.02958657083215161       639.9320115686653
0.029783718091758563      640.4418818055864
0.029980652759780888      640.7777743608654
0.030176688080480362      641.1139841011553
0.030372121537075924      641.4505110264558
0.03056725336547531       641.7873551367674
0.030762385193874833      642.1245164320896
0.030957818650470807      642.4619949124227
0.031153853971170976      642.7997905777665
0.031350788639194264      643.1379034281213
