% Model:              brazing.mph
% Version:            COMSOL 5.3.0.223
% Date:               Oct 19 2018, 15:13
% Dimension:          1
% Nodes:              161
% Expressions:        1
% Description:        Line graph
% x                       Height
0                         646.4156352001469
1.9693985890610136E-4     646.3835951944025
3.9298030043864816E-4     646.3623982228005
5.884188308682271E-4      646.3520442853413
7.835557095112735E-4      646.3525333820247
9.786925881542028E-4      646.3638655128506
0.0011741311185834375     646.3860406778191
0.0013701715601154056     646.4190588769301
0.0015671114190207022     646.4629201101837
0.0017642608961497635     646.2246932251754
0.0019605081241513326     645.9825537496863
0.0021561515411346144     645.7365016837163
0.002351492352702621      645.4865370272654
0.0025468331642698894     645.2326597803336
0.0027424765812509564     644.974869942921
0.0029387238092488436     644.7131675150275
0.0031358732863727766     644.4475524966532
0.0033326885608882563     644.078645376208
0.0035286060983021257     643.7146492215046
0.0037239228519497995     643.3555640325432
0.003918938519653848      643.0013898093235
0.004113954187357973      642.6521265518459
0.004309270941005876      642.30777426011
0.004505188478420127      641.9683329341161
0.004702003752936137      641.6338025738642
0.004899138702461749      641.2853772624135
0.005095371599302965      640.953480781629
0.005291000816927052      640.6381131315109
0.005486327495291825      640.3392743120589
0.005681654173656831      640.0569643232733
0.0058772833912816074     639.791183165154
0.0060735162881239745     639.541930837701
0.006270651237651189      639.3092073409142
0.006467582778148322      639.1304389121959
0.006663615013526554      638.9845929810541
0.006859045413116663      638.8716695474885
0.0070541741987231454     638.7916686114992
0.007249302984329781      638.7445901730862
0.007444733383920351      638.7304342322496
0.007640765619299351      638.7492007889892
0.007837697159797551      638.8008898433053
0.008034634474091872      638.7955707363737
0.008230672405352359      638.827270997884
0.008426108448549354      638.8959906278358
0.008621242851524007      639.0017296262291
0.008816377254498534      639.1444879930641
0.009011813297695145      639.3242657283407
0.009207851228955002      639.541062832059
0.00940478854324844       639.7948793042189
0.00960192671152544       640.1075406810253
0.00979816278359587       640.4352327895676
0.009993795147248338      640.7779556298459
0.010189124956984269      641.1357092018601
0.010384454766719743      641.5084935056103
0.010580087130370853      641.8963085410965
0.010776323202439026      642.2991543083185
0.01097346137071288       642.7170308072766
0.011170281912174305      643.0898590216959
0.011366204645540166      643.472600089436
0.011561526547508357      643.8652540104966
0.011756547339625332      644.2678207848779
0.011951568131742307      644.6803004125799
0.0121468900337105        645.1026928936024
0.012342812767076368      645.5349982279455
0.0125396333085378        645.9772164156093
0.012736771215691979      646.2645789598815
0.012933007030171178      646.5503591497558
0.013128639138602195      646.8345569852319
0.013323968694306592      647.1171724663096
0.013519298250011432      647.3982055929893
0.013714930358443784      647.6776563652705
0.0139111661729252        647.9555247831537
0.014108304080082462      648.2318108466385
0.014305241249097643      648.2251444179736
0.014501279037039759      648.2217055432805
0.014696714938233999      648.2214942225584
0.014891849199866372      648.2245104558078
0.015086983461498874      648.2307542430285
0.015282419362693495      648.2402255842206
0.01547845715063625       648.2529244793842
0.015675394319652317      648.268850928519
0.015872325504405583      647.8936152518676
0.01606835738884011       647.5235758099831
0.016263787440706973      647.1587326028653
0.016458915880206496      646.7990856305142
0.016654044319705866      646.44463489293
0.016849474371572262      646.0953803901126
0.017045506256006017      645.751322122062
0.017242437440758204      645.4124600887782
0.01743957168037589       644.8491431149906
0.017635803876907424      644.2763271497461
0.01783143240066149       643.6940121930443
0.018026758388388308      643.1021982448855
0.01822208437611492       642.5008853052695
0.01841771289986836       641.8900733741965
0.018613945096398854      641.2697624516663
0.018811079336015085      640.6399525376792
0.019007894687321662      639.9740401989134
0.01920381230049143       639.3104620698784
0.019399129129200405      638.6492181505747
0.01959414487161704       637.990308441002
0.01978916061403359       637.3337329411602
0.01998447744274231       636.6794916510494
0.020180395055911654      636.0275845706697
0.020377210407217645      635.3780117000209
0.020574360469106157      634.7933865485815
0.020770608273960874      634.2297954738382
0.020966252262493188      633.6872384757908
0.021161593642948652      633.1657155544395
0.021356935023404883      632.6652267097843
0.021552579011939476      632.1857719418249
0.021748826816797996      631.7273512505617
0.021945976878691802      631.2899646359945
0.022142917141692885      630.9559387504629
0.022338957981867254      630.665574165468
0.022534396907280062      630.4188708810101
0.02272953417907009       630.2158288970888
0.02292467145086023       630.0564482137045
0.02312011037627338       629.9407288308568
0.02331615121644832       629.8686707485459
0.023513091479450195      629.8402739667719
0.023710025135207962      629.7740998911347
0.02390605945730262       629.7568222663448
0.024101491924457957      629.788441092402
0.024296622768016963      629.8689563693063
0.024491753611575823      629.9983680970578
0.02468718607873073       630.1766762756562
0.024883220400824673      630.4038809051019
0.025080154056581445      630.6799819853948
0.025277299572591536      631.0655795794789
0.025473542893039384      631.472624844327
0.02566918243840792       631.9011177799391
0.025864519396400307      632.351058386315
0.026059856354392216      632.8224466634548
0.026255495899759323      633.3152826113585
0.026451739220204794      633.8295662300261
0.026648884736211575      634.3652975194576
0.02684569473774919       634.9500010060393
0.027041607073256636      635.5403458317511
0.027236918672681274      636.1363319965928
0.027431929210095855      636.7379595005647
0.027626939747510428      637.3452283436666
0.027822251346935042      637.9581385258983
0.028018163682442445      638.5766900472603
0.028214973683980002      639.2008829077522
0.028412120943583204      639.797005744459
0.028608365984047285      640.3819321502409
0.02880400723361381       640.9556621250973
0.02899934588786498       641.5181956690286
0.02919468454211669       642.0695327820348
0.029390325791684838      642.6096734641156
0.02958657083215161       643.1386177152714
0.029783718091758563      643.6563655355019
0.029980652759780888      644.0015107924687
0.030176688080480362      644.3465884640395
0.030372121537075924      644.6915985502144
0.03056725336547531       645.036541050993
0.030762385193874833      645.3814159663756
0.030957818650470807      645.7262232963621
0.031153853971170976      646.0709630409525
0.031350788639194264      646.4156352001469
