% Model:              brazing.mph
% Version:            COMSOL 5.3.0.223
% Date:               Oct 18 2018, 00:54
% Dimension:          1
% Nodes:              225
% Expressions:        1
% Description:        Line graph
% x                       Height
0                         171.5265319533492
2.3022181212578358E-4     171.49067132845943
4.5999325066962656E-4     171.45078368549088
6.894940081029028E-4      171.4068690244436
9.189044129547812E-4      171.35892734531757
0.001148405006736289      171.30695864811292
0.0013781761183620641     171.2509629328294
0.001608397441069865      171.1909401994672
0.001839314118928521      171.01941403044106
0.0020697760201574002     170.85211798453207
0.002299964597801726      170.68905206173997
0.0025300619515304015     170.53021626206498
0.0027602503975112853     170.3756105855071
0.0029907120357255193     170.2252350320661
0.003221628319839081      170.07908960174228
0.0034518885683530987     169.87386898118461
0.0036816980188178403     169.66868061803046
0.003911236592567028      169.46352451227995
0.004140684848157368      169.258400663933
0.004370223557282477      169.0533090729898
0.004600033278179856      168.84824973945
0.004830293931548535      168.6432226633139
0.005060048526376791      168.3840043537548
0.005289355629682316      168.12951953051225
0.005518393850920054      167.87976819358613
0.005747342428834         167.6347503429766
0.00597638081262499       167.39446597868368
0.006205688240655705      167.1589151007072
0.006435443321622868      166.92809770904728
0.006665339619110656      166.67251384073364
0.006894787442849326      166.42270924676302
0.007123965728649401      166.17868392713524
0.007353054043912613      165.94043788185041
0.007582232167524012      165.70797111090866
0.007811679667266285      165.48128361430975
0.008041575479707366      165.2603753920538
0.008271887219609135      165.0346721730735
0.008501747728772392      164.8176717417001
0.008731337046705121      164.6093740979337
0.008960835851156599      164.40977924177434
0.009190425033567954      164.21888717322207
0.009420285272008154      164.03669789227666
0.009650596606620833      163.8632113989383
0.009881512912836019      163.69446567927685
0.010111974573021956      163.53715458413234
0.010342163040896366      163.39127811350448
0.010572260416492441      163.25683626739357
0.010802449016030204      163.1338290457996
0.011032910939230619      163.0222564487222
0.011263827639190652      162.9221184761618
0.011494048967061755      162.82530446998828
0.011723820083820682      162.7464047621383
0.011953320682717213      162.68541935261175
0.012182731092678062      162.64234824140874
0.012412231855226382      162.6171914285294
0.012642003298903411      162.60994891397337
0.012872225116192546      162.62062069774095
0.013102446994778118      162.59103579540698
0.013332218499393473      162.58463389941318
0.01356171932266464       162.60141500975925
0.013791129793276359      162.64137912644549
0.01402063045289555       162.70452624947183
0.014250401630592404      162.79085637883804
0.014480623019759359      162.90036951454437
0.014711539835704642      162.9627739588537
0.014942001874208778      163.04521215261724
0.015172190588640395      163.1476840958349
0.01540228807899374       163.27018978850668
0.015632476661762654      163.41272923063275
0.015862938437253588      163.57530242221281
0.01609385485945594       163.7579093632471
0.016324115336228646      163.91531609976846
0.016553925013622208      164.08231215101875
0.016783463813500554      164.258897516998
0.017012912294953733      164.44507219770617
0.01724245123020976       164.64083619314346
0.01747226117803945       164.84618950330957
0.017702522059672054      165.0611321282047
0.017932276794613372      165.27317023148686
0.018161584037218948      165.4921014989066
0.018390622397267263      165.71792593046376
0.018619571113827754      165.9506435261585
0.018848609636427344      166.19025428599087
0.019077917203754128      166.4367582099606
0.019307672424828403      166.6901552980679
0.019537568573699274      166.91403733778412
0.01976701624968263       167.14326213482343
0.019996194388245302      167.37782968918577
0.020225282556443316      167.61774000087127
0.020454460532815345      167.86299306988002
0.02068390788479834       168.11358889621164
0.020913803548616574      168.36952747986652
0.02114411498977932       168.5633748442272
0.021373975201947604      168.76297575407102
0.02160356422393484       168.9683302093979
0.02183306273279162       169.1794382102077
0.02206265161925901       169.39629975650087
0.02229251156070728       169.6189148482768
0.02252282259658549       169.84728348553597
0.022753738766914562      169.9808551062044
0.022984200292012823      170.11791696339952
0.023214388625279938      170.25846905712132
0.023444485866429166      170.40251138736977
0.023674674331359946      170.55004395414494
0.023905136119473275      170.7010667574467
0.024136052683548088      170.8555797972752
0.024366274021741702      170.89398155250757
0.024596045148762867      170.93640338686396
0.024825545757885373      170.98284530034437
0.02505495617806012       171.0333072929488
0.02528445695083446       171.08778936467735
0.025514228404773787      171.1462915155298
0.025744450232385536      171.20881374550635
0.025974672267095825      171.17026905315174
0.026204443926923768      171.1290034621445
0.02643394490485871       171.08501697248465
0.02666335552995085       171.03830958417223
0.026892856344233315      170.98888129720734
0.02712262767714175       170.93673211158972
0.02735284922243193       170.88186202731958
0.027583766528201624      170.71599097183957
0.027814229053652367      170.55077444012994
0.028044418253299775      170.38621243219052
0.02827451622829193       170.22230494802147
0.028504705296278778      170.05905198762275
0.028735167558720572      169.8964535509943
0.028966084470753738      169.73450963813622
0.029196345605491433      169.52927023094549
0.02942615593701711       169.31775130342186
0.02965569538872289       169.0999528555654
0.029885144521236064      168.87587488737603
0.030114684108324883      168.645517398854
0.030344494710297387      168.4088803899989
0.030574756249911007      168.16596386081113
0.030804511377321087      167.89709693498395
0.031033819010118435      167.6268898496101
0.031262857758987544      167.3553426046896
0.03149180686390927       167.0824552002224
0.031720845775323685      166.80822763620864
0.031950153732830305      166.5326599126481
0.032179909346355486      166.255752029541
0.0324098051544111        165.9818504135443
0.032639252491552244      165.70980540926826
0.03286843029245836       165.43961701671276
0.0330975181233935        165.17128523587797
0.03332669576210278       164.9048100667639
0.03355614277523119       164.6401915093703
0.033786038098215655      164.37742956369743
0.034016348759356954      164.1268744554162
0.03424620819605658       163.88416989621032
0.034475796445315066      163.64931588607965
0.03470529418235937       163.42231242502442
0.03493488229610333       163.20315951304462
0.035164741462093585      162.99185715013994
0.03539505171796626       162.78840533631075
0.035625967353597694      162.6000044424777
0.03585642834714083       162.42425781164434
0.036086616150743635      162.26116544381068
0.03631671286286018       162.11072733897663
0.03654690079812825       161.9729434971424
0.036777362054689705      161.84781391830768
0.03700827808407173       161.73533860247272
0.03723849938140827       161.63437002602467
0.03746827046781093       161.5525859978598
0.03769777103645843       161.4899865179782
0.03792718141620601       161.4465715863799
0.0381566821485052        161.422341203065
0.03838645356182577       161.4172953680332
0.03861667534858004       161.4314340812848
0.038846895274787324      161.41707636878033
0.039076664838430766      161.42712121210468
0.03930616372759302       161.4615686112578
0.03953557226638858       161.52041856623964
0.039765070991905134      161.60367107705036
0.039994840228642616      161.71132614368975
0.040225059665450036      161.84338376615796
0.04045597761776665       161.94147973812886
0.04068644078597457       162.05987741051797
0.04091663062609736       162.19857678332517
0.041146729240799984      162.3575778565505
0.04137691894925231       162.53688063019422
0.04160738185443156       162.7364851042559
0.04183829941298208       162.9563912787359
0.04206856149768976       163.15902690915766
0.04229837277362926       163.37043041162656
0.04252791316640542       163.59060178614254
0.04275736323887129       163.81954103270556
0.04298690376702529       164.0572481513159
0.04321671531340127       164.30372314197314
0.04344697780296935       164.5589660046776
0.043676731016186174      164.82839078982965
0.04390603674591497       165.10010027181607
0.04413507359840861       165.3740944506368
0.04436402080919017       165.6503733262919
0.044593057824233256      165.9289368987815
0.04482236387867965       166.20978516810527
0.045052117578024006      166.49291813426345
0.045282012653644836      166.77708374796794
0.045511459262636354      167.0582943010881
0.04574063633797325       167.3365497936237
0.04596972344420469       167.61185022557498
0.046198900357357554      167.884195596942
0.046428346642361965      168.15358590772445
0.04665824123294997       168.42002115792258
0.04688855484177433       168.6626549854377
0.04711841720894409       168.90197956547541
0.04734800837831597       169.13799489803569
0.04757750903201372       169.37070098311858
0.047807100065861544      169.60009782072427
0.04803696216230292       169.82618541085236
0.04826727536583021       170.04896375350313
0.048498193048686675      170.21308120956002
0.048728656077441146      170.37418351275966
0.04895884590902903       170.532270663102
0.04918894464672031       170.6873426605871
0.04941913460997818       170.83939950521517
0.04964959790176041       170.98844119698572
0.04988051597838159       171.13446773589914
0.05011073543954296       171.18627758794963
0.0503405047004922        171.23948721395703
0.05057000345013497       171.2940966139214
0.05079941201302823       171.35010578784284
0.05102891092631677       171.40751473572135
0.05125868051417213       171.46632345755677
0.051488900464733596      171.5265319533492
