% Model:              brazing.mph
% Version:            COMSOL 5.3.0.223
% Date:               Oct 18 2018, 00:36
% Dimension:          1
% Nodes:              225
% Expressions:        1
% Description:        Line graph
% x                       Height
0                         230.58721305735037
2.3022181212578358E-4     230.5241100173124
4.5999325066962656E-4     230.4503960370747
6.894940081029028E-4      230.36607111663722
9.189044129547812E-4      230.2711352560001
0.001148405006736289      230.1655884551634
0.0013781761183620641     230.04943071412674
0.001608397441069865      229.92266203289046
0.001839314118928521      229.6480043900138
0.0020697760201574002     229.37209030587138
0.002299964597801726      229.09491978046327
0.0025300619515304015     228.81649281378952
0.0027602503975112853     228.5368094058503
0.0029907120357255193     228.25586955664517
0.003221628319839081      227.97367326617444
0.0034518885683530987     227.61405286222072
0.0036816980188178403     227.24662727313853
0.003911236592567028      226.87139649892788
0.004140684848157368      226.48836053958883
0.004370223557282477      226.09751939512148
0.004600033278179856      225.69887306552556
0.004830293931548535      225.29242155080135
0.005060048526376791      224.83624528489662
0.005289355629682316      224.38157769742185
0.005518393850920054      223.9284187883768
0.005747342428834         223.47676855776172
0.00597638081262499       223.02662700557664
0.006205688240655705      222.57799413182124
0.006435443321622868      222.1308699364958
0.006665339619110656      221.6671533892124
0.006894787442849326      221.20944344656112
0.007123965728649401      220.75774010854195
0.007353054043912613      220.31204337515481
0.007582232167524012      219.87235324640005
0.007811679667266285      219.43866972227727
0.008041575479707366      219.01099280278663
0.008271887219609135      218.59073391573355
0.008501747728772392      218.1845013787518
0.008731337046705121      217.7922951918411
0.008960835851156599      217.41411535500163
0.009190425033567954      217.0499618682336
0.009420285272008154      216.6998347315365
0.009650596606620833      216.3637339449108
0.009881512912836019      216.04528009185339
0.010111974573021956      215.74758949979758
0.010342163040896366      215.47066216874327
0.010572260416492441      215.21449809869023
0.010802449016030204      214.97909728963896
0.011032910939230619      214.7644597415889
0.011263827639190652      214.57058545454043
0.011494048967061755      214.39164591578407
0.011723820083820682      214.24453197782015
0.011953320682717213      214.12924364064855
0.012182731092678062      214.0457809042694
0.012412231855226382      213.9941437686827
0.012642003298903411      213.97433223388822
0.012872225116192546      213.98634629988624
0.013102446994778118      213.93930948402783
0.013332218499393473      213.93310682822965
0.01356171932266464       213.96773833249148
0.013791129793276359      214.04320399681365
0.01402063045289555       214.15950382119604
0.014250401630592404      214.31663780563844
0.014480623019759359      214.51460595014112
0.014711539835704642      214.6475009004845
0.014942001874208778      214.8144265876457
0.015172190588640395      215.0153830116248
0.01540228807899374       215.2503701724218
0.015632476661762654      215.51938807003683
0.015862938437253588      215.8224367044695
0.01609385485945594       216.1595160757202
0.016324115336228646      216.46741905267658
0.016553925013622208      216.79051444732693
0.016783463813500554      217.12880225967098
0.017012912294953733      217.48228248970884
0.01724245123020976       217.85095513744068
0.01747226117803945       218.23482020286616
0.017702522059672054      218.63387768598562
0.017932276794613372      219.04312195675817
0.018161584037218948      219.46050411780385
0.018390622397267263      219.8860241691225
0.018619571113827754      220.31968211071415
0.018848609636427344      220.76147794257906
0.019077917203754128      221.21141166471676
0.019307672424828403      221.66948327712765
0.019537568573699274      222.10660805111024
0.01976701624968263       222.54516006962342
0.019996194388245302      222.98513933266685
0.020225282556443316      223.42654584024086
0.020454460532815345      223.8693795923454
0.02068390788479834       224.31364058898015
0.020913803548616574      224.75932883014553
0.02114411498977932       225.14569587677113
0.021373975201947604      225.5307973070103
0.02160356422393484       225.91463312086285
0.02183306273279162       226.29720331832885
0.02206265161925901       226.67850789940854
0.02229251156070728       227.05854686410152
0.02252282259658549       227.4373202124081
0.022753738766914562      227.71819715708847
0.022984200292012823      227.9924588810777
0.023214388625279938      228.26010538437572
0.023444485866429166      228.5211366669825
0.023674674331359946      228.77555272889833
0.023905136119473275      229.02335357012277
0.024136052683548088      229.26453919065614
0.024366274021741702      229.3826919848358
0.024596045148762867      229.4952843913116
0.024825545757885373      229.6023164100837
0.02505495617806012       229.703788041152
0.02528445695083446       229.7996992845167
0.025514228404773787      229.8900501401775
0.025744450232385536      229.97484060813463
0.025974672267095825      229.92184410752174
0.026204443926923768      229.8591544710086
0.02643394490485871       229.7867716985951
0.02666335552995085       229.7046957902814
0.026892856344233315      229.6129267460675
0.02712262767714175       229.5114645659532
0.02735284922243193       229.40030924993874
0.027583766528201624      229.13634082258625
0.027814229053652367      228.86615096771828
0.028044418253299775      228.58973968533462
0.02827451622829193       228.3071069754356
0.028504705296278778      228.01825283802117
0.028735167558720572      227.72317727309104
0.028966084470753738      227.4218802806455
0.029196345605491433      227.05203552288452
0.02942615593701711       226.6666926827133
0.02965569538872289       226.26585176013168
0.029885144521236064      225.84951275513964
0.030114684108324883      225.41767566773746
0.030344494710297387      224.97034049792472
0.030574756249911007      224.5075072457018
0.030804511377321087      224.0186337103366
0.031033819010118435      223.52368334469105
0.031262857758987544      223.02265614876524
0.03149180686390927       222.5155521225593
0.031720845775323685      222.00237126607317
0.031950153732830305      221.48311357930652
0.032179909346355486      220.95777906225982
0.0324098051544111        220.4430200497394
0.032639252491552244      219.93023760039523
0.03286843029245836       219.4194317142272
0.0330975181233935        218.91060239123544
0.03332669576210278       218.40374963142006
0.03355614277523119       217.89887343478068
0.033786038098215655      217.3959738013176
0.034016348759356954      216.9174874788638
0.03424620819605658       216.45344665106182
0.034475796445315066      216.0038513179116
0.03470529418235937       215.56870147941333
0.03493488229610333       215.14799713556692
0.035164741462093585      214.74173828637225
0.03539505171796626       214.3499249318295
0.035625967353597694      213.9868163710758
0.03585642834714083       213.6479808274973
0.036086616150743635      213.3334183010938
0.03631671286286018       213.0431287918655
0.03654690079812825       212.77711229981253
0.036777362054689705      212.53536882493455
0.03700827808407173       212.31789836723186
0.03723849938140827       212.12538198638782
0.03746827046781093       211.96799546789595
0.03769777103645843       211.84573881175635
0.03792718141620601       211.75861201796897
0.0381566821485052        211.70661508653387
0.03838645356182577       211.68974801745082
0.03861667534858004       211.7080108107201
0.038846895274787324      211.68983601529186
0.039076664838430766      211.7146932336732
0.03930616372759302       211.78258246586427
0.03953557226638858       211.89350371186492
0.039765070991905134      212.0474569716755
0.039994840228642616      212.24444224529543
0.040225059665450036      212.48445953272523
0.04045597761776665       212.68337797165213
0.04068644078597457       212.91747336464437
0.04091663062609736       213.18674571170203
0.041146729240799984      213.49119501282513
0.04137691894925231       213.83082126801378
0.04160738185443156       214.20562447726758
0.04183829941298208       214.61560464058692
0.04206856149768976       215.0106031788976
0.04229837277362926       215.42087954823768
0.04252791316640542       215.84643374860724
0.04275736323887129       216.28726578000646
0.04298690376702529       216.74337564243518
0.04321671531340127       217.21476333589334
0.04344697780296935       217.7014288603811
0.043676731016186174      218.2144904694623
0.04390603674591497       218.73076743102462
0.04413507359840861       219.25025974506786
0.04436402080919017       219.77296741159222
0.044593057824233256      220.2988904305978
0.04482236387867965       220.8280288020842
0.045052117578024006      221.3603825260518
0.045282012653644836      221.9015058397925
0.045511459262636354      222.43404290298906
0.04574063633797325       222.95799371564135
0.04596972344420469       223.47335827774947
0.046198900357357554      223.9801365893137
0.046428346642361965      224.47832865033348
0.04665824123294997       224.96793446080926
0.04688855484177433       225.4345777496793
0.04711841720894409       225.88812039747717
0.04734800837831597       226.32856240420278
0.04757750903201372       226.75590376985622
0.047807100065861544      227.17014449443758
0.04803696216230292       227.57128457794653
0.04826727536583021       227.9593240203834
0.048498193048686675      228.28390102106522
0.048728656077441146      228.59265959644068
0.04895884590902903       228.88559974650929
0.04918894464672031       229.16272147127148
0.04941913460997818       229.42402477072733
0.04964959790176041       229.66950964487637
0.04988051597838159       229.89917609371895
0.05011073543954296       230.02597110870227
0.0503405047004922        230.14326478362597
0.05057000345013497       230.2510571184901
0.05079941201302823       230.34934811329452
0.05102891092631677       230.43813776803955
0.05125868051417213       230.51742608272468
0.051488900464733596      230.58721305735037
