% Model:              brazing.mph
% Version:            COMSOL 5.3.0.223
% Date:               Oct 18 2018, 00:47
% Table:              Table 3 - 
% Time (s)               Temperature (Cp_Al = 929, k_Al = 206.3, sigma_Al = 3.3962E7, rho_Al = 3052, Cp_inlet = 889.7, k_inlet = 229.9, sigma_inlet = 3.0374E7, rho_inlet = 3297, Cp_outlet = 863.2, k_outlet = 137.2, sigma_outlet = 4.3634E7, rho_outlet = 2922.2, Cp_outlet_sleeve = 938.3, k_outlet_sleeve = 224.9, sigma_outlet_sleeve = 3.3551E7, rho_outlet_sleeve = 2617.7, Cp_inlet_sleeve = 883.2, k_inlet_sleeve = 184.5, sigma_inlet_sleeve = 4.3027E7, rho_inlet_sleeve = 3395.3) (K), Point: 60Temperature (Cp_Al = 929, k_Al = 206.3, sigma_Al = 3.3962E7, rho_Al = 3052, Cp_inlet = 889.7, k_inlet = 229.9, sigma_inlet = 3.0374E7, rho_inlet = 3297, Cp_outlet = 863.2, k_outlet = 137.2, sigma_outlet = 4.3634E7, rho_outlet = 2922.2, Cp_outlet_sleeve = 938.3, k_outlet_sleeve = 224.9, sigma_outlet_sleeve = 3.3551E7, rho_outlet_sleeve = 2617.7, Cp_inlet_sleeve = 883.2, k_inlet_sleeve = 184.5, sigma_inlet_sleeve = 4.3027E7, rho_inlet_sleeve = 3395.3) (K), Point: 98Temperature (Cp_Al = 929, k_Al = 206.3, sigma_Al = 3.3962E7, rho_Al = 3052, Cp_inlet = 889.7, k_inlet = 229.9, sigma_inlet = 3.0374E7, rho_inlet = 3297, Cp_outlet = 863.2, k_outlet = 137.2, sigma_outlet = 4.3634E7, rho_outlet = 2922.2, Cp_outlet_sleeve = 938.3, k_outlet_sleeve = 224.9, sigma_outlet_sleeve = 3.3551E7, rho_outlet_sleeve = 2617.7, Cp_inlet_sleeve = 883.2, k_inlet_sleeve = 184.5, sigma_inlet_sleeve = 4.3027E7, rho_inlet_sleeve = 3395.3) (K), Point: 134Temperature (Cp_Al = 929, k_Al = 206.3, sigma_Al = 3.3962E7, rho_Al = 3052, Cp_inlet = 889.7, k_inlet = 229.9, sigma_inlet = 3.0374E7, rho_inlet = 3297, Cp_outlet = 863.2, k_outlet = 137.2, sigma_outlet = 4.3634E7, rho_outlet = 2922.2, Cp_outlet_sleeve = 938.3, k_outlet_sleeve = 224.9, sigma_outlet_sleeve = 3.3551E7, rho_outlet_sleeve = 2617.7, Cp_inlet_sleeve = 883.2, k_inlet_sleeve = 184.5, sigma_inlet_sleeve = 4.3027E7, rho_inlet_sleeve = 3395.3) (K), Point: 154Temperature (Cp_Al = 929, k_Al = 206.3, sigma_Al = 3.3962E7, rho_Al = 3052, Cp_inlet = 889.7, k_inlet = 229.9, sigma_inlet = 3.0374E7, rho_inlet = 3297, Cp_outlet = 863.2, k_outlet = 137.2, sigma_outlet = 4.3634E7, rho_outlet = 2922.2, Cp_outlet_sleeve = 938.3, k_outlet_sleeve = 224.9, sigma_outlet_sleeve = 3.3551E7, rho_outlet_sleeve = 2617.7, Cp_inlet_sleeve = 883.2, k_inlet_sleeve = 184.5, sigma_inlet_sleeve = 4.3027E7, rho_inlet_sleeve = 3395.3) (K), Point: 172Temperature (Cp_Al = 929, k_Al = 206.3, sigma_Al = 3.3962E7, rho_Al = 3052, Cp_inlet = 889.7, k_inlet = 229.9, sigma_inlet = 3.0374E7, rho_inlet = 3297, Cp_outlet = 863.2, k_outlet = 137.2, sigma_outlet = 4.3634E7, rho_outlet = 2922.2, Cp_outlet_sleeve = 938.3, k_outlet_sleeve = 224.9, sigma_outlet_sleeve = 3.3551E7, rho_outlet_sleeve = 2617.7, Cp_inlet_sleeve = 883.2, k_inlet_sleeve = 184.5, sigma_inlet_sleeve = 4.3027E7, rho_inlet_sleeve = 3395.3) (K), Point: 210Temperature (Cp_Al = 929, k_Al = 206.3, sigma_Al = 3.3962E7, rho_Al = 3052, Cp_inlet = 889.7, k_inlet = 229.9, sigma_inlet = 3.0374E7, rho_inlet = 3297, Cp_outlet = 863.2, k_outlet = 137.2, sigma_outlet = 4.3634E7, rho_outlet = 2922.2, Cp_outlet_sleeve = 938.3, k_outlet_sleeve = 224.9, sigma_outlet_sleeve = 3.3551E7, rho_outlet_sleeve = 2617.7, Cp_inlet_sleeve = 883.2, k_inlet_sleeve = 184.5, sigma_inlet_sleeve = 4.3027E7, rho_inlet_sleeve = 3395.3) (K), Point: 232Temperature (Cp_Al = 929, k_Al = 206.3, sigma_Al = 3.3962E7, rho_Al = 3052, Cp_inlet = 889.7, k_inlet = 229.9, sigma_inlet = 3.0374E7, rho_inlet = 3297, Cp_outlet = 863.2, k_outlet = 137.2, sigma_outlet = 4.3634E7, rho_outlet = 2922.2, Cp_outlet_sleeve = 938.3, k_outlet_sleeve = 224.9, sigma_outlet_sleeve = 3.3551E7, rho_outlet_sleeve = 2617.7, Cp_inlet_sleeve = 883.2, k_inlet_sleeve = 184.5, sigma_inlet_sleeve = 4.3027E7, rho_inlet_sleeve = 3395.3) (K), Point: 270
0                        294.1888847339574        294.18235445261274       294.1573690234095        294.1528242172993        294.15340052129255       294.1505259911465        294.1854908029502        294.19267281520484
3                        358.36524940093034       351.63198655653974       349.65743343855297       347.6510349510603        347.68415432214346       346.281738974927         352.22697395140375       358.90806568928457
6                        387.02968869419436       380.7269113782507        378.7389450724682        376.7150128703984        376.0852991346621        374.6385456389005        381.2754876128779        387.0022265016443
9                        405.7305063813254        400.1306501694629        398.1307099650744        396.10334949091396       394.5832112142736        393.1575238141735        400.65010946684487       405.3100295977109
12                       418.27803077665726       413.37972809399986       411.372174678253         409.34365825644966       407.0011532791443        405.5957450680653        413.88138619645366       417.6137109153334
15                       427.2135061807544        422.9238082441712        420.9116320795003        418.8828570798011        415.8603350944663        414.46904591964767       423.4148398949137        426.40770225937837
18                       434.1498069154467        430.3663951384729        428.35141284893365       426.3227739215787        422.7518318842868        421.3718112792594        430.8510526985688        433.2638136416563
21                       439.9829549841472        436.62271465583683       434.6059881999659        432.577663353226         428.55735363102514       427.1878894732545        437.10345802333995       439.0510908026252
24                       445.17027686531725       442.17198945155513       440.15415327468156       438.1262162491524        433.72663072005076       432.36735888507604       442.65027275443924       444.21173781493826
27                       449.9427699661777        447.2603748812684        445.24182825552276       443.21429851556485       438.48688655412735       437.13720777667265       447.7371001347752        448.96881738810066
