% Model:              brazing.mph
% Version:            COMSOL 5.3.0.223
% Date:               Oct 18 2018, 00:23
% Dimension:          1
% Nodes:              161
% Expressions:        1
% Description:        Line graph
% x                       Height
0                         193.57055564470073
1.9693985890610136E-4     193.56248364021098
3.9298030043864816E-4     193.55751422528158
5.884188308682271E-4      193.55564739991235
7.835557095112735E-4      193.5568831641035
9.786925881542028E-4      193.5612215178549
0.0011741311185834375     193.56866246116658
0.0013701715601154056     193.5792059940386
0.0015671114190207022     193.5928521164709
0.0017642608961497635     193.5221577510311
0.0019605081241513326     193.45024089249296
0.0021561515411346144     193.3771015408566
0.002351492352702621      193.30273969612182
0.0025468331642698894     193.22715535828877
0.0027424765812509564     193.15034852735738
0.0029387238092488436     193.07231920332765
0.0031358732863727766     192.99306738619964
0.0033326885608882563     192.88235791332318
0.0035286060983021257     192.77308467524853
0.0037239228519497995     192.66524767197564
0.003918938519653848      192.5588469035045
0.004113954187357973      192.45388236983513
0.004309270941005876      192.3503540709675
0.004505188478420127      192.2482620069017
0.004702003752936137      192.14760617763767
0.004899138702461749      192.04276434705616
0.005095371599302965      191.94282030079773
0.005291000816927052      191.84777403886233
0.005486327495291825      191.75762556124994
0.005681654173656831      191.67237486796063
0.0058772833912816074     191.5920219589944
0.0060735162881239745     191.51656683435112
0.006270651237651189      191.446009494031
0.006467582778148322      191.3917155165371
0.006663615013526554      191.3472603475097
0.006859045413116663      191.31264398694867
0.0070541741987231454     191.2878664348541
0.007249302984329781      191.27292769122596
0.007444733383920351      191.26782775606426
0.007640765619299351      191.27256662936895
0.007837697159797551      191.28714431114014
0.008034634474091872      191.28501609093053
0.008230672405352359      191.29395031062535
0.008426108448549354      191.3139469702246
0.008621242851524007      191.3450060697283
0.008816377254498534      191.38712760913648
0.009011813297695145      191.4403115884491
0.009207851228955002      191.50455800766616
0.00940478854324844       191.57986686678765
0.00960192671152544       191.67277290894958
0.00979816278359587       191.77016342828568
0.009993795147248338      191.8720384247962
0.010189124956984269      191.97839789848086
0.010384454766719743      192.08924184933983
0.010580087130370853      192.20457027737308
0.010776323202439026      192.32438318258062
0.01097346137071288       192.4486805649624
0.011170281912174305      192.55958612258604
0.011366204645540166      192.67343707618363
0.011561526547508357      192.79023342575533
0.011756547339625332      192.90997517130097
0.011951568131742307      193.03266231282055
0.0121468900337105        193.15829485031418
0.012342812767076368      193.28687278378175
0.0125396333085378        193.41839611322337
0.012736771215691979      193.50339774072808
0.012933007030171178      193.5879248741012
0.013128639138602195      193.6719775133423
0.013323968694306592      193.75555565845178
0.013519298250011432      193.83865930942943
0.013714930358443784      193.9212884662753
0.0139111661729252        194.00344312898943
0.014108304080082462      194.08512329757178
0.014305241249097643      194.08206475111945
0.014501279037039759      194.07993295475842
0.014696714938233999      194.07872790848853
0.014891849199866372      194.07844961230995
0.015086983461498874      194.07909806622263
0.015282419362693495      194.08067327022655
0.01547845715063625       194.08317522432174
0.015675394319652317      194.08660392850817
0.015872325504405583      193.9729264031459
0.01606835738884011       193.86079218378796
0.016263787440706973      193.75020127043445
0.016458915880206496      193.64115366308522
0.016654044319705866      193.5336493617404
0.016849474371572262      193.42768836639993
0.017045506256006017      193.32327067706382
0.017242437440758204      193.22039629373205
0.01743957168037589       193.0501058283068
0.017635803876907424      192.8769370156691
0.01783143240066149       192.70088985581918
0.018026758388388308      192.5219643487568
0.01822208437611492       192.34016049448206
0.01841771289986836       192.15547829299493
0.018613945096398854      191.9679177442954
0.018811079336015085      191.7774788483835
0.019007894687321662      191.57586596981423
0.01920381230049143       191.37501361925268
0.019399129129200405      191.1749217966987
0.01959414487161704       190.9755905021524
0.01978916061403359       190.77701973561364
0.01998447744274231       190.57920949708256
0.020180395055911654      190.3821597865591
0.020377210407217645      190.18587060404326
0.020574360469106157      190.00918993258034
0.020770608273960874      189.83891694784484
0.020966252262493188      189.6750516498368
0.021161593642948652      189.51759403855624
0.021356935023404883      189.36654411400315
0.021552579011939476      189.22190187617753
0.021748826816797996      189.08366732507932
0.021945976878691802      188.95184046070858
0.022142917141692885      188.85099674748807
0.022338957981867254      188.76340803194387
0.022534396907280062      188.6890743140758
0.02272953417907009       188.62799559388407
0.02292467145086023       188.58017187136858
0.02312011037627338       188.54560314652946
0.02331615121644832       188.52428941936648
0.023513091479450195      188.51623068987988
0.023710025135207962      188.49734623308024
0.02390605945730262       188.49328614693508
0.024101491924457957      188.50405043144423
0.024296622768016963      188.52963908660786
0.024491753611575823      188.57005211242586
0.02468718607873073       188.62528950889828
0.024883220400824673      188.69535127602512
0.025080154056581445      188.7802374138064
0.025277299572591536      188.89774551994657
0.025473542893039384      189.0217970605491
0.02566918243840792       189.15239203561373
0.025864519396400307      189.2895304451407
0.026059856354392216      189.43321228912993
0.026255495899759323      189.58343756758137
0.026451739220204794      189.7402062804951
0.026648884736211575      189.903518427871
0.02684569473774919       190.08165571334143
0.027041607073256636      190.26147825374414
0.027236918672681274      190.4429860490793
0.027431929210095855      190.6261790993468
0.027626939747510428      190.81105740454666
0.027822251346935042      190.99762096467884
0.028018163682442445      191.18586977974343
0.028214973683980002      191.37580384974035
0.028412120943583204      191.55715321682203
0.028608365984047285      191.73507529164095
0.02880400723361381       191.90957007419712
0.02899934588786498       192.08063756449053
0.02919468454211669       192.24827776252113
0.029390325791684838      192.41249066828902
0.02958657083215161       192.57327628179416
0.029783718091758563      192.7306346030365
0.029980652759780888      192.83596117296554
0.030176688080480362      192.94119161725996
0.030372121537075924      193.04632593591987
0.03056725336547531       193.1513641289452
0.030762385193874833      193.2563061963359
0.030957818650470807      193.3611521380921
0.031153853971170976      193.46590195421373
0.031350788639194264      193.57055564470073
