% Model:              brazing.mph
% Version:            COMSOL 5.3.0.223
% Date:               Oct 18 2018, 00:55
% Dimension:          1
% Nodes:              161
% Expressions:        1
% Description:        Line graph
% x                       Height
0                         197.96457255933973
1.9693985890610136E-4     197.95856758448048
3.9298030043864816E-4     197.9552549777904
5.884188308682271E-4      197.9546347392698
7.835557095112735E-4      197.95670686891845
9.786925881542028E-4      197.96147136673648
0.0011741311185834375     197.96892823272378
0.0013701715601154056     197.97907746688048
0.0015671114190207022     197.99191906920646
0.0017642608961497635     197.9195099859495
0.0019605081241513326     197.84548512167146
0.0021561515411346144     197.76984447637233
0.002351492352702621      197.692588050052
0.0025468331642698894     197.61371584271052
0.0027424765812509564     197.533227854348
0.0029387238092488436     197.4511240849643
0.0031358732863727766     197.3674045345595
0.0033326885608882563     197.2526669177708
0.0035286060983021257     197.1393209526002
0.0037239228519497995     197.02736663904767
0.003918938519653848      196.91680397711343
0.004113954187357973      196.8076329667973
0.004309270941005876      196.69985360809932
0.004505188478420127      196.5934659010195
0.004702003752936137      196.4884698455578
0.004899138702461749      196.3798524766081
0.005095371599302965      196.2764836791701
0.005291000816927052      196.17836345324417
0.005486327495291825      196.08549179883
0.005681654173656831      195.99786871592778
0.0058772833912816074     195.91549420453742
0.0060735162881239745     195.83836826465898
0.006270651237651189      195.7664908962924
0.006467582778148322      195.71164839856073
0.006663615013526554      195.6672829329466
0.006859045413116663      195.63339449945005
0.0070541741987231454     195.60998309807104
0.007249302984329781      195.59704872880963
0.007444733383920351      195.5945913916658
0.007640765619299351      195.6026110866395
0.007837697159797551      195.62110781373087
0.008034634474091872      195.62270041453286
0.008230672405352359      195.63596320427678
0.008426108448549354      195.66089618296252
0.008621242851524007      195.69749935059014
0.008816377254498534      195.7457727071597
0.009011813297695145      195.80571625267106
0.009207851228955002      195.87732998712443
0.00940478854324844       195.9606139105196
0.00960192671152544       196.06253708965255
0.00979816278359587       196.16912009969167
0.009993795147248338      196.28036294063713
0.010189124956984269      196.3962656124889
0.010384454766719743      196.51682811524688
0.010580087130370853      196.64205044891116
0.010776323202439026      196.77193261348168
0.01097346137071288       196.9064746089585
0.011170281912174305      197.02770129719784
0.011366204645540166      197.15167936224873
0.011561526547508357      197.27840880411122
0.011756547339625332      197.4078896227852
0.011951568131742307      197.54012181827073
0.0121468900337105        197.67510539056786
0.012342812767076368      197.81284033967648
0.0125396333085378        197.95332666559665
0.012736771215691979      198.0470399035234
0.012933007030171178      198.1396413908667
0.013128639138602195      198.2311311276266
0.013323968694306592      198.3215091138033
0.013519298250011432      198.4107753493966
0.013714930358443784      198.4989298344065
0.0139111661729252        198.58597256883309
0.014108304080082462      198.67190355267633
0.014305241249097643      198.67228247183016
0.014501279037039759      198.67274869214793
0.014696714938233999      198.67330221362965
0.014891849199866372      198.67394303627526
0.015086983461498874      198.67467116008476
0.015282419362693495      198.6754865850582
0.01547845715063625       198.67638931119558
0.015675394319652317      198.6773793384968
0.015872325504405583      198.5604036060481
0.01606835738884011       198.4441288951043
0.016263787440706973      198.32855520566545
0.016458915880206496      198.2136825377317
0.016654044319705866      198.09951089130288
0.016849474371572262      197.98604026637895
0.017045506256006017      197.87327066296007
0.017242437440758204      197.76120208104612
0.01743957168037589       197.58102307066014
0.017635803876907424      197.39743001563545
0.01783143240066149       197.21042291597217
0.018026758388388308      197.0200017716703
0.01822208437611492       196.82616658272985
0.01841771289986836       196.62891734915087
0.018613945096398854      196.4282540709333
0.018811079336015085      196.22417674807713
0.019007894687321662      196.00902222432404
0.01920381230049143       195.79455262122815
0.019399129129200405      195.58076793878962
0.01959414487161704       195.3676681770081
0.01978916061403359       195.15525333588386
0.01998447744274231       194.94352341541685
0.020180395055911654      194.73247841560698
0.020377210407217645      194.5221183364543
0.020574360469106157      194.33189584827784
0.020770608273960874      194.14850099193598
0.020966252262493188      193.97193376742882
0.021161593642948652      193.80219417475627
0.021356935023404883      193.63928221391836
0.021552579011939476      193.4831978849151
0.021748826816797996      193.33394118774646
0.021945976878691802      193.19151212241246
0.022142917141692885      193.08111492011557
0.022338957981867254      192.9847943013458
0.022534396907280062      192.90255026610328
0.02272953417907009       192.83438281438794
0.02292467145086023       192.78029194619978
0.02312011037627338       192.7402776615388
0.02331615121644832       192.71433996040497
0.023513091479450195      192.70247884279837
0.023710025135207962      192.67963709275045
0.02390605945730262       192.67246709105444
0.024101491924457957      192.6809688377105
0.024296622768016963      192.70514233271854
0.024491753611575823      192.7449875760786
0.02468718607873073       192.80050456779054
0.024883220400824673      192.87169330785457
0.025080154056581445      192.9585537962705
0.025277299572591536      193.07965636990116
0.025473542893039384      193.207804736213
0.02566918243840792       193.34299889520588
0.025864519396400307      193.48523884687995
0.026059856354392216      193.6345245912351
0.026255495899759323      193.7908561282714
0.026451739220204794      193.95423345798883
0.026648884736211575      194.12465658038735
0.02684569473774919       194.3105639451017
0.027041607073256636      194.49832017984892
0.027236918672681274      194.687925284629
0.027431929210095855      194.87937925944192
0.027626939747510428      195.07268210428776
0.027822251346935042      195.2678338191664
0.028018163682442445      195.46483440407792
0.028214973683980002      195.66368385902234
0.028412120943583204      195.85419476465603
0.028608365984047285      196.04099531196647
0.02880400723361381       196.22408550095355
0.02899934588786498       196.40346533161738
0.02919468454211669       196.5791348039579
0.029390325791684838      196.75109391797508
0.02958657083215161       196.919342673669
0.029783718091758563      197.08388107103957
0.029980652759780888      197.19615149736188
0.030176688080480362      197.30779792646
0.030372121537075924      197.4188203583339
0.03056725336547531       197.5292187929835
0.030762385193874833      197.63899323040891
0.030957818650470807      197.74814367061003
0.031153853971170976      197.85667011358703
0.031350788639194264      197.96457255933973
