% Model:              brazing.mph
% Version:            COMSOL 5.3.0.223
% Date:               Oct 18 2018, 00:51
% Dimension:          1
% Nodes:              161
% Expressions:        1
% Description:        Line graph
% x                       Height
0                         204.29232261467632
1.9693985890610136E-4     204.27550196125833
3.9298030043864816E-4     204.26343576585975
5.884188308682271E-4      204.25612402848049
7.835557095112735E-4      204.25356674912064
9.786925881542028E-4      204.2557639277801
0.0011741311185834375     204.26271556445897
0.0013701715601154056     204.2744216591571
0.0015671114190207022     204.29088221187465
0.0017642608961497635     204.22169719095155
0.0019605081241513326     204.15154069048975
0.0021561515411346144     204.0804127104892
0.002351492352702621      204.00831325094993
0.0025468331642698894     203.93524231187195
0.0027424765812509564     203.86119989325522
0.0029387238092488436     203.7861859950998
0.0031358732863727766     203.71020061740563
0.0033326885608882563     203.60611934384866
0.0035286060983021257     203.5031020571015
0.0037239228519497995     203.40114875716444
0.003918938519653848      203.30025944403712
0.004113954187357973      203.2004341177198
0.004309270941005876      203.10167277821233
0.004505188478420127      203.00397542551485
0.004702003752936137      202.90734205962724
0.004899138702461749      202.80985917779003
0.005095371599302965      202.71643377498032
0.005291000816927052      202.62706585119793
0.005486327495291825      202.54175540644292
0.005681654173656831      202.46050244071535
0.0058772833912816074     202.38330695401515
0.0060735162881239745     202.3101689463424
0.006270651237651189      202.24108841769703
0.006467582778148322      202.1911509431656
0.006663615013526554      202.1501617576505
0.006859045413116663      202.11812086115168
0.0070541741987231454     202.09502825366906
0.007249302984329781      202.0808839352028
0.007444733383920351      202.07568790575277
0.007640765619299351      202.0794401653191
0.007837697159797551      202.09214071390164
0.008034634474091872      202.08534779539247
0.008230672405352359      202.08893977538685
0.008426108448549354      202.1029166538852
0.008621242851524007      202.12727843088726
0.008816377254498534      202.16202510639306
0.009011813297695145      202.2071566804026
0.009207851228955002      202.26267315291597
0.00940478854324844       202.32857452393307
0.00960192671152544       202.41486474715077
0.00979816278359587       202.50492052585173
0.009993795147248338      202.59874186003594
0.010189124956984269      202.6963287497034
0.010384454766719743      202.79768119485408
0.010580087130370853      202.902799195488
0.010776323202439026      203.01168275160524
0.01097346137071288       203.1243318632056
0.011170281912174305      203.2260272025323
0.011366204645540166      203.33061838187336
0.011561526547508357      203.43810540122905
0.011756547339625332      203.54848826059913
0.011951568131742307      203.66176695998365
0.0121468900337105        203.77794149938273
0.012342812767076368      203.8970118787962
0.0125396333085378        204.01897809822418
0.012736771215691979      204.09782599552494
0.012933007030171178      204.17649222305312
0.013128639138602195      204.25497678080836
0.013323968694306592      204.33327966879108
0.013519298250011432      204.41140088700098
0.013714930358443784      204.48934043543818
0.0139111661729252        204.56709831410268
0.014108304080082462      204.64467452299442
0.014305241249097643      204.63847138858364
0.014501279037039759      204.63476941381845
0.014696714938233999      204.63356859869907
0.014891849199866372      204.63486894322534
0.015086983461498874      204.63867044739732
0.015282419362693495      204.64497311121505
0.01547845715063625       204.65377693467843
0.015675394319652317      204.66508191778757
0.015872325504405583      204.5522077680596
0.01606835738884011       204.4427320193439
0.016263787440706973      204.33665467164053
0.016458915880206496      204.23397572494935
0.016654044319705866      204.1346951792704
0.016849474371572262      204.03881303460383
0.017045506256006017      203.94632929094945
0.017242437440758204      203.85724394830737
0.01743957168037589       203.69995597396257
0.017635803876907424      203.54028635316467
0.01783143240066149       203.37823508591396
0.018026758388388308      203.2138021722102
0.01822208437611492       203.04698761205344
0.01841771289986836       202.87779140544382
0.018613945096398854      202.70621355238114
0.018811079336015085      202.53225405286554
0.019007894687321662      202.3507233545895
0.01920381230049143       202.16953548705226
0.019399129129200405      201.988690450254
0.01959414487161704       201.80818824419475
0.01978916061403359       201.62802886887437
0.01998447744274231       201.44821232429302
0.020180395055911654      201.26873861045055
0.020377210407217645      201.08960772734702
0.020574360469106157      200.93315446060035
0.020770608273960874      200.7819005449926
0.020966252262493188      200.63584598052364
0.021161593642948652      200.49499076719354
0.021356935023404883      200.35933490500236
0.021552579011939476      200.22887839395003
0.021748826816797996      200.10362123403655
0.021945976878691802      199.983563425262
0.022142917141692885      199.8970152248566
0.022338957981867254      199.8222422938831
0.022534396907280062      199.75924463234134
0.02272953417907009       199.7080222402313
0.02292467145086023       199.66857511755313
0.02312011037627338       199.6409032643067
0.02331615121644832       199.6250066804921
0.023513091479450195      199.62088536610935
0.023710025135207962      199.60314909009946
0.02390605945730262       199.59888851491513
0.024101491924457957      199.60810364055624
0.024296622768016963      199.63079446702267
0.024491753611575823      199.6669609943146
0.02468718607873073       199.71660322243196
0.024883220400824673      199.77972115137476
0.025080154056581445      199.856314781143
0.025277299572591536      199.96769968376145
0.025473542893039384      200.08431531501355
0.02566918243840792       200.2061616748989
0.025864519396400307      200.33323876341768
0.026059856354392216      200.46554658056994
0.026255495899759323      200.60308512635555
0.026451739220204794      200.74585440077465
0.026648884736211575      200.8938544038271
0.02684569473774919       201.05863177085433
0.027041607073256636      201.2246529353995
0.027236918672681274      201.3919178974623
0.027431929210095855      201.56042665704302
0.027626939747510428      201.73017921414151
0.027822251346935042      201.9011755687577
0.028018163682442445      202.07341572089172
0.028214973683980002      202.24689967054354
0.028412120943583204      202.4151403817625
0.028608365984047285      202.58006945735025
0.02880400723361381       202.74168689730675
0.02899934588786498       202.89999270163185
0.02919468454211669       203.0549868703257
0.029390325791684838      203.20666940338828
0.02958657083215161       203.35504030081955
0.029783718091758563      203.5000995626196
0.029980652759780888      203.59454310399366
0.030176688080480362      203.69029645683418
0.030372121537075924      203.78735962114143
0.03056725336547531       203.8857325969152
0.030762385193874833      203.9854153841556
0.030957818650470807      204.08640798286257
0.031153853971170976      204.18871039303616
0.031350788639194264      204.29232261467632
