% Model:              brazing.mph
% Version:            COMSOL 5.3.0.223
% Date:               Oct 18 2018, 00:31
% Dimension:          1
% Nodes:              161
% Expressions:        1
% Description:        Line graph
% x                       Height
0                         173.4990092386662
1.9693985890610136E-4     173.48076154449427
3.9298030043864816E-4     173.4670398165694
5.884188308682271E-4      173.45784405489167
7.835557095112735E-4      173.45317425946104
9.786925881542028E-4      173.45303043027747
0.0011741311185834375     173.45741256734107
0.0013701715601154056     173.46632067065173
0.0015671114190207022     173.4797547402095
0.0017642608961497635     173.41217385604187
0.0019605081241513326     173.34520750007448
0.0021561515411346144     173.27885567230715
0.002351492352702621      173.21311837273993
0.0025468331642698894     173.14799560137283
0.0027424765812509564     173.08348735820584
0.0029387238092488436     173.01959364323898
0.0031358732863727766     172.95631445647223
0.0033326885608882563     172.86002146406435
0.0035286060983021257     172.76603609198435
0.0037239228519497995     172.67435834023235
0.003918938519653848      172.58498820880823
0.004113954187357973      172.49792569771205
0.004309270941005876      172.41317080694387
0.004505188478420127      172.33072353650357
0.004702003752936137      172.2505838863912
0.004899138702461749      172.16215276337533
0.005095371599302965      172.07842671224574
0.005291000816927052      171.99940573300262
0.005486327495291825      171.92508982564584
0.005681654173656831      171.85547899017547
0.0058772833912816074     171.7905732265915
0.0060735162881239745     171.73037253489395
0.006270651237651189      171.6748769150828
0.006467582778148322      171.63021533380987
0.006663615013526554      171.59381987347427
0.006859045413116663      171.56569053407605
0.0070541741987231454     171.54582731561516
0.007249302984329781      171.53423021809164
0.007444733383920351      171.53089924150544
0.007640765619299351      171.53583438585662
0.007837697159797551      171.54903565114512
0.008034634474091872      171.54634842997677
0.008230672405352359      171.5530619882877
0.008426108448549354      171.56917632607775
0.008621242851524007      171.59469144334702
0.008816377254498534      171.6296073400955
0.009011813297695145      171.67392401632316
0.009207851228955002      171.72764147202997
0.00940478854324844       171.790759707216
0.00960192671152544       171.86541115246933
0.00979816278359587       171.9445080482178
0.009993795147248338      172.0280503944615
0.010189124956984269      172.11603819120046
0.010384454766719743      172.20847143843463
0.010580087130370853      172.305350136164
0.010776323202439026      172.40667428438866
0.01097346137071288       172.51244388310846
0.011170281912174305      172.60190295187215
0.011366204645540166      172.69507704776117
0.011561526547508357      172.79196617077548
0.011756547339625332      172.89257032091513
0.011951568131742307      172.99688949818005
0.0121468900337105        173.10492370257037
0.012342812767076368      173.21667293408598
0.0125396333085378        173.33213719272692
0.012736771215691979      173.39992306414916
0.012933007030171178      173.4691884191983
0.013128639138602195      173.53993325787434
0.013323968694306592      173.6121575801772
0.013519298250011432      173.68586138610698
0.013714930358443784      173.76104467566358
0.0139111661729252        173.83770744884714
0.014108304080082462      173.91584970565754
0.014305241249097643      173.91078861397455
0.014501279037039759      173.90854694057225
0.014696714938233999      173.90912468545065
0.014891849199866372      173.91252184860974
0.015086983461498874      173.91873843004953
0.015282419362693495      173.92777442977007
0.01547845715063625       173.93962984777136
0.015675394319652317      173.95430468405328
0.015872325504405583      173.8597907487865
0.01606835738884011       173.7683951630505
0.016263787440706973      173.6801179268453
0.016458915880206496      173.5949590401708
0.016654044319705866      173.5129185030271
0.016849474371572262      173.43399631541416
0.017045506256006017      173.35819247733207
0.017242437440758204      173.2855069887807
0.01743957168037589       173.14880195772753
0.017635803876907424      173.01099229665897
0.01783143240066149       172.87207800557513
0.018026758388388308      172.7320590844759
0.01822208437611492       172.59093553336135
0.01841771289986836       172.4487073522315
0.018613945096398854      172.30537454108634
0.018811079336015085      172.16093709992583
0.019007894687321662      172.00338335922777
0.01920381230049143       171.84680111978645
0.019399129129200405      171.69119038160187
0.01959414487161704       171.53655114467404
0.01978916061403359       171.3828834090029
0.01998447744274231       171.23018717458848
0.020180395055911654      171.07846244143082
0.020377210407217645      170.9277092095299
0.020574360469106157      170.79114131970175
0.020770608273960874      170.65959202550238
0.020966252262493188      170.53306132693177
0.021161593642948652      170.41154922398988
0.021356935023404883      170.29505571667676
0.021552579011939476      170.18358080499223
0.021748826816797996      170.0771244889366
0.021945976878691802      169.9756867685096
0.022142917141692885      169.89876533941379
0.022338957981867254      169.83195160186648
0.022534396907280062      169.77524555586785
0.02272953417907009       169.7286472014178
0.02292467145086023       169.69215653851637
0.02312011037627338       169.6657735671635
0.02331615121644832       169.64949828735934
0.023513091479450195      169.64333069910373
0.023710025135207962      169.62604580781732
0.02390605945730262       169.6202677268007
0.024101491924457957      169.62599645605388
0.024296622768016963      169.6432319955768
0.024491753611575823      169.67197434536945
0.02468718607873073       169.7122235054319
0.024883220400824673      169.76397947576407
0.025080154056581445      169.827242256366
0.025277299572591536      169.916419531455
0.025473542893039384      170.0107116414501
0.02566918243840792       170.1101185863513
0.025864519396400307      170.21464036615868
0.026059856354392216      170.32427698087213
0.026255495899759323      170.43902843049176
0.026451739220204794      170.55889471501752
0.026648884736211575      170.6838758344494
0.02684569473774919       170.81904161892436
0.027041607073256636      170.95592101636026
0.027236918672681274      171.094514026757
0.027431929210095855      171.23482065011467
0.027626939747510428      171.37684088643323
0.027822251346935042      171.52057473571273
0.028018163682442445      171.66602219795305
0.028214973683980002      171.81318327315432
0.028412120943583204      171.9495997542695
0.028608365984047285      172.08436964008035
0.02880400723361381       172.21749293058696
0.02899934588786498       172.3489696257892
0.02919468454211669       172.47879972568717
0.029390325791684838      172.60698323028083
0.02958657083215161       172.7335201395702
0.029783718091758563      172.85841045355522
0.029980652759780888      172.93250174286453
0.030176688080480362      173.0083026204108
0.030372121537075924      173.0858130861941
0.03056725336547531       173.16503314021446
0.030762385193874833      173.24596278247185
0.030957818650470807      173.32860201296626
0.031153853971170976      173.41295083169769
0.031350788639194264      173.4990092386662
