% Model:              brazing.mph
% Version:            COMSOL 5.3.0.223
% Date:               Oct 23 2018, 10:04
% Dimension:          1
% Nodes:              193
% Expressions:        1
% Description:        Line graph
% x                       Height
0                         631.6076653548562
1.6028433640637486E-4     631.6947756804906
3.201839556876346E-4      631.7742105766042
4.7982673004648776E-4     631.845970043197
6.393411493738095E-4      631.9100540802689
7.988560137323205E-4      631.9664626878199
9.58500122107595E-4       632.0151958658502
0.0011184019611720658     632.0562536143594
0.0012786893978073315     632.089635933348
0.0014692881782178572     632.1169297011054
0.0016592398034323465     632.1267540952824
0.0018487589083489172     632.1191091158788
0.00203806159906999       632.0939947628946
0.0022273647228667317     632.0514110363298
0.0024168851255237504     631.9913579361844
0.002606838908709185      631.9138354624583
0.0027974407000143733     631.8188436151518
0.003000214284638094      631.6918249236518
0.0032022105766743216     631.5487052995185
0.003403687017647933      631.3894847427518
0.0036049030444305387     631.2141632533519
0.0038061191011872996     631.0227408313186
0.004007595631967136      630.8152174766518
0.00420959207329518       630.5915931893517
0.00441236586612622       630.3518679694182
0.004615139632985625      630.0798231788547
0.004817136048636202      629.8040944432522
0.005018612553936322      629.5246817626107
0.005219828585313435      629.2415851369303
0.005421044586718146      628.954804566211
0.0056225210022172924     628.6643400504527
0.005824517268584787      628.3701915896553
0.006027290827249049      628.0723591838191
0.006217890949519272      627.761432238916
0.006407844130704021      627.4696287986611
0.0065973647866391935     627.1969488630547
0.00678666880286996       626.9433924320964
0.006975972806121895      626.7089595057865
0.007165493423165078      626.493650084125
0.007355446539677438      626.2974641671117
0.007546046571713631      626.1204017547467
0.00770633524869351       625.988166805987
0.007866237248851195      625.8742632802144
0.008025880956992212      625.7786911774294
0.008185395381580456      625.7014504976316
0.008344909844757132      625.6425412408213
0.008504553668569658      625.6019634069983
0.008664455861201733      625.5797169961626
0.008824744806995652      625.5758020083142
0.008985029143401957      625.592101019112
0.009144928762683142      625.6312057336789
0.009304571537041926      625.6931161520147
0.009464085956369179      625.7778322741195
0.00962360082072762       625.8853540999934
0.009783244929102828      626.0156816296363
0.009943146768167231      626.1688148630483
0.010103434204802428      626.3447538002292
0.010294032985212885      626.5466682636343
0.010483984610427306      626.7692090096483
0.01067350371534381       627.0123760382709
0.010862806406064813      627.2761693495023
0.011052109529861487      627.5605889433425
0.011241629932518437      627.8656348197914
0.011431583715703804      628.1913069788488
0.011622185507008923      628.5376054205152
0.011824959091632737      628.8787639848306
0.012026955383669057      629.2120740557608
0.012228431824642762      629.5375356333061
0.01242964785142546       629.8551487174662
0.012630863908182311      630.1649133082414
0.012832340438962243      630.4668294056314
0.01303433688029038       630.7608970096366
0.013237110673121513      631.0471161202565
0.013439884439981065      631.3056774828252
0.013641880855631786      631.543749764274
0.013843357360932049      631.7613329646033
0.014044573392309304      631.9584270838128
0.014245789393714157      632.1350321219027
0.014447265809213447      632.2911480788728
0.014649262075581083      632.4267749547232
0.01485203563424549       632.541912749454
0.015042635756515686      632.6358661787685
0.015232588937700405      632.7124397447944
0.015422109593635547      632.7716334475318
0.015611413609866287      632.8134472869805
0.015800717613118194      632.8378812631405
0.01599023823016135       632.8449353760121
0.01618019134667368       632.834609625595
0.016370791378709844      632.8069040118894
0.016531080055689654      632.7560552940042
0.01669098205584727       632.7014851331945
0.016850625763988217      632.6431935294609
0.017010140188576394      632.5811804828028
0.017169654651752998      632.5154459932204
0.017329298475565455      632.4459900607138
0.017489200668197463      632.372812685283
0.01764948961399131       632.2959138669278
0.01780977395039525       632.18694401687
0.017969673569674088      632.0656165532253
0.018129316344030533      631.9319314759936
0.01828883076335545       631.7858887851751
0.01844834562771156       631.6274884807697
0.01860798973608443       631.4567305627774
0.018767891575146484      631.2736150311982
0.018928179011779317      631.0781418860322
0.019118777792188433      630.7836053604556
0.019308729417401523      630.465876018436
0.019498248522316707      630.1249538599736
0.019687551213036395      629.7608388850681
0.019876854336831753      629.3735310937197
0.02006637473948738       628.9630304859285
0.020256328522671414      628.5293370616943
0.020446930313975188      628.0724508210171
0.02064970389860279       627.5230933373338
0.02085170019064286       626.9603524056618
0.02105317663162028       626.3842280260006
0.02125439265840668       625.7947201983508
0.021455608715167235      625.191828922712
0.02165708524595088       624.5755541990843
0.021859081687282764      623.9458960274678
0.02206185548011769       623.3028544078625
0.022264629246980954      622.6617665830108
0.022466625662635346      622.0335978999441
0.022668102167939252      621.4183483586622
0.022869318199320136      620.816017959165
0.023070534200728618      620.2266067014526
0.023272010616231548      619.6501145855251
0.023474006882602858      619.0865416113824
0.02367678044127098       618.5358877790244
0.02386738056353977       618.0045734120321
0.024057333744723106      617.5096387863675
0.02424685440065687       617.0510839020304
0.024436158416886237      616.6289087590211
0.02462546242013677       616.2431133573393
0.024814983037178547      615.8936976969852
0.025004936153689494      615.5806617779587
0.025195536185724256      615.3040056002598
0.0253558248627017        615.0662166397009
0.025515726862856965      614.8594701127548
0.025675370570995573      614.6837660194215
0.02583488499558142       614.5391043597009
0.02599439945875569       614.425485133593
0.02615404328256581       614.342908341098
0.026313945475195465      614.2913739822156
0.026474234420986946      614.2708820569461
0.026634518757392422      614.2759673541922
0.02679441837667279       614.3084086075057
0.026954061151030752      614.3682058168871
0.02711357557035719       614.455358982336
0.027273090434714816      614.5698681038526
0.027432734543089202      614.7117331814369
0.027592636382152785      614.8809542150888
0.02775292381878715       615.0775312048083
0.02794352259919713       615.3228294003653
0.02813347422441108       615.6032589115026
0.028322993329327112      615.9188197382199
0.028512296020047647      616.2695118805176
0.02870159914384385       616.6553353383955
0.028891119546500334      617.0762901118535
0.02908107332968523       617.5323762008917
0.029271675120989875      618.0235936055102
0.02947444870561504       618.5625123196328
0.029676444997652693      619.1137728336975
0.02987792143862772       619.6773751477044
0.030079137465411736      620.2533192616536
0.030280353522169904      620.8416051755449
0.030481830052951155      621.4422328893785
0.030683826494280624      622.0552024031543
0.030886600287113104      622.6805137168723
0.03108937405397396       623.2934156528619
0.03129137046962597       623.899813474828
0.03149284697492751       624.4997071827705
0.03169406300630604       625.0930967766895
0.03189527900771217       625.679982256585
0.03209675542321274       626.260363622457
0.03229875168958166       626.8342408743055
0.03250152524824737       627.4016140121304
0.03269212537051706       627.859801856526
0.03288207855170127       628.2928209364497
0.033071599207635916      628.7006712519018
0.033260903223866156      629.0833528028818
0.033450207227117564      629.4408655893901
0.033639727844160215      629.7732096114264
0.03382968096067204       630.080384868991
0.034020280992707694      630.3623913620837
0.034180569669686675      630.5635599349963
0.03434047166984347       630.7517258439616
0.0345001153779836        630.9268890889792
0.03465962980257096       631.0890496700496
0.03481914426574675       631.2382075871724
0.034978788089558385      631.3743628403478
0.03513869028218957       631.4975154295757
0.035298979227982585      631.6076653548562
