% Model:              brazing.mph
% Version:            COMSOL 5.3.0.223
% Date:               Oct 23 2018, 10:04
% Dimension:          1
% Nodes:              225
% Expressions:        1
% Description:        Line graph
% x                       Height
0                         636.8130103998064
2.3022181212578358E-4     636.6691529542119
4.5999325066962656E-4     636.501711937149
6.894940081029028E-4      636.3106873486178
9.189044129547812E-4      636.0960791886181
0.001148405006736289      635.8578874571505
0.0013781761183620641     635.596112154214
0.001608397441069865      635.3107532798093
0.001839314118928521      634.6118796252852
0.0020697760201574002     633.9196607527846
0.002299964597801726      633.2340966623071
0.0025300619515304015     632.5551873538532
0.0027602503975112853     631.8829328274229
0.0029907120357255193     631.2173330830158
0.003221628319839081      630.5583881206321
0.0034518885683530987     629.6776472438255
0.0036816980188178403     628.7884547266154
0.003911236592567028      627.8908105690015
0.004140684848157368      626.9847147709838
0.004370223557282477      626.070167332563
0.004600033278179856      625.1471682537381
0.004830293931548535      624.2157175345096
0.005060048526376791      623.100624437829
0.005289355629682316      621.9981732181415
0.005518393850920054      620.9083638754468
0.005747342428834         619.8311964097452
0.00597638081262499       618.7666708210369
0.006205688240655705      617.7147871093213
0.006435443321622868      616.6755452745989
0.006665339619110656      615.5575806350594
0.006894787442849326      614.4598278459674
0.007123965728649401      613.3822869073231
0.007353054043912613      612.3249578191267
0.007582232167524012      611.2878405813782
0.007811679667266285      610.2709351940771
0.008041575479707366      609.2742416572239
0.008271887219609135      608.2723492346114
0.008501747728772392      607.305894285008
0.008731337046705121      606.3748768084135
0.008960835851156599      605.4792968048284
0.009190425033567954      604.6191542742525
0.009420285272008154      603.7944492166855
0.009650596606620833      603.0051816321279
0.009881512912836019      602.2446136054447
0.010111974573021956      601.5330473879179
0.010342163040896366      600.8704829795479
0.010572260416492441      600.2569203803342
0.010802449016030204      599.6923595902775
0.011032910939230619      599.176800609377
0.011263827639190652      598.7102434376332
0.011494048967061755      598.2661809987771
0.011723820083820682      597.8983332046834
0.011953320682717213      597.6067000553516
0.012182731092678062      597.3912815507819
0.012412231855226382      597.2520776909745
0.012642003298903411      597.1890884759288
0.012872225116192546      597.2023139056454
0.013102446994778118      597.0561242464775
0.013332218499393473      597.0084001838486
0.01356171932266464       597.059141717759
0.013791129793276359      597.2083488482085
0.01402063045289555       597.4560215751977
0.014250401630592404      597.8021598987257
0.014480623019759359      598.246763818793
0.014711539835704642      598.5089439171586
0.014942001874208778      598.8552528301212
0.015172190588640395      599.2856905576808
0.01540228807899374       599.8002570998374
0.015632476661762654      600.3989524565915
0.015862938437253588      601.081776627942
0.01609385485945594       601.8487296138899
0.016324115336228646      602.5240787811191
0.016553925013622208      603.2388603963255
0.016783463813500554      603.9930744595092
0.017012912294953733      604.7867209706701
0.01724245123020976       605.6197999298086
0.01747226117803945       606.4923113369239
0.017702522059672054      607.4042551920166
0.017932276794613372      608.3196877124334
0.018161584037218948      609.2610317667809
0.018390622397267263      610.2282873550593
0.018619571113827754      611.2214544772685
0.018848609636427344      612.2405331334088
0.019077917203754128      613.2855233234797
0.019307672424828403      614.3564250474816
0.019537568573699274      615.3346365850945
0.01976701624968263       616.328176227339
0.019996194388245302      617.3370439742149
0.020225282556443316      618.3612398257225
0.020454460532815345      619.400763781862
0.02068390788479834       620.4556158426326
0.020913803548616574      621.525796008035
0.02114411498977932       622.384529118794
0.021373975201947604      623.2563612146937
0.02160356422393484       624.1412922957336
0.02183306273279162       625.0393223619142
0.02206265161925901       625.9504514132356
0.02229251156070728       626.874679449697
0.02252282259658549       627.8120064712994
0.022753738766914562      628.4191706368026
0.022984200292012823      629.0283285310448
0.023214388625279938      629.639480154026
0.023444485866429166      630.2526255057462
0.023674674331359946      630.8677645862056
0.023905136119473275      631.4848973954037
0.024136052683548088      632.1040239333408
0.024366274021741702      632.3151007674663
0.024596045148762867      632.5297937836327
0.024825545757885373      632.7481029818399
0.02505495617806012       632.9700283620881
0.02528445695083446       633.1955699243775
0.025514228404773787      633.4247276687074
0.025744450232385536      633.6575015950784
0.025974672267095825      633.506533845458
0.026204443926923768      633.3380651680728
0.02643394490485871       633.152095562923
0.02666335552995085       632.9486250300087
0.026892856344233315      632.7276535693297
0.02712262767714175       632.4891811808859
0.02735284922243193       632.2332078646778
0.027583766528201624      631.559390215499
0.027814229053652367      630.8806453589808
0.028044418253299775      630.1969732951236
0.02827451622829193       629.5083740239273
0.028504705296278778      628.814847545392
0.028735167558720572      628.1163938595172
0.028966084470753738      627.4130129663035
0.029196345605491433      626.5377839639633
0.02942615593701711       625.6323724995281
0.02965569538872289       624.6967785729978
0.029885144521236064      623.7310021843728
0.030114684108324883      622.735043333653
0.030344494710297387      621.7089020208382
0.030574756249911007      620.6525782459286
0.030804511377321087      619.5071168677897
0.031033819010118435      618.3531795582123
0.031262857758987544      617.1907663171962
0.03149180686390927       616.0198771447416
0.031720845775323685      614.8405120408485
0.031950153732830305      613.6526710055166
0.032179909346355486      612.4563540387462
0.0324098051544111        611.2772162694785
0.032639252491552244      610.1056946354466
0.03286843029245836       608.9417891366506
0.0330975181233935        607.7854997730908
0.03332669576210278       606.6368265447669
0.03355614277523119       605.4957694516787
0.033786038098215655      604.3623284938267
0.034016348759356954      603.283873765157
0.03424620819605658       602.2397828848722
0.034475796445315066      601.2300558529722
0.03470529418235937       600.2546926694572
0.03493488229610333       599.3136933343275
0.035164741462093585      598.4070578475823
0.03539505171796626       597.5347862092223
0.035625967353597694      596.7285758068274
0.03585642834714083       595.9782086555248
0.036086616150743635      595.2836847553142
0.03631671286286018       594.645004106196
0.03654690079812825       594.0621667081703
0.036777362054689705      593.5351725612363
0.03700827808407173       593.064021665395
0.03723849938140827       592.6461819240839
0.03746827046781093       592.3109333257497
0.03769777103645843       592.0582758703922
0.03792718141620601       591.8882095580117
0.0381566821485052        591.8007343886081
0.03838645356182577       591.7958503621811
0.03861667534858004       591.8735574787312
0.038846895274787324      591.8445542932933
0.039076664838430766      591.9188124262778
0.03930616372759302       592.0963318776845
0.03953557226638858       592.3771126475136
0.039765070991905134      592.7611547357654
0.039994840228642616      593.2484581424392
0.040225059665450036      593.8390228675355
0.04045597761776665       594.3046755855368
0.04068644078597457       594.8554888277708
0.04091663062609736       595.4914625942373
0.041146729240799984      596.2125968849366
0.04137691894925231       597.0188916998687
0.04160738185443156       597.9103470390332
0.04183829941298208       598.8869629024307
0.04206856149768976       599.8063083976074
0.04229837277362926       600.7625194048288
0.04252791316640542       601.755595924095
0.04275736323887129       602.785537955406
0.04298690376702529       603.8523454987621
0.04321671531340127       604.9560185541627
0.04344697780296935       606.0965571216084
0.043676731016186174      607.2968475123313
0.04390603674591497       608.5060666709086
0.04413507359840861       609.7242145973402
0.04436402080919017       610.951291291626
0.044593057824233256      612.1872967537664
0.04482236387867965       613.432230983761
0.045052117578024006      614.6860939816099
0.045282012653644836      615.9498244694697
0.045511459262636354      617.1979752926336
0.04574063633797325       618.4305464511012
0.04596972344420469       619.647537944873
0.046198900357357554      620.8489497739488
0.046428346642361965      622.0347819383283
0.04665824123294997       623.2050344380118
0.04688855484177433       624.2920158356985
0.04711841720894409       625.3573417641063
0.04734800837831597       626.4010122232352
0.04757750903201372       627.4230272130851
0.047807100065861544      628.4233867336565
0.04803696216230292       629.4020907849487
0.04826727536583021       630.359139366962
0.048498193048686675      631.1076067663076
0.048728656077441146      631.8321021003698
0.04895884590902903       632.5326253691485
0.04918894464672031       633.2091765726437
0.04941913460997818       633.861755710856
0.04964959790176041       634.4903627837845
0.04988051597838159       635.0949977914298
0.05011073543954296       635.3661584817819
0.0503405047004922        635.6287423995584
0.05057000345013497       635.8827495447591
0.05079941201302823       636.1281799173844
0.05102891092631677       636.3650335174342
0.05125868051417213       636.593310344908
0.051488900464733596      636.8130103998064
