% Model:              brazing.mph
% Version:            COMSOL 5.3.0.223
% Date:               Oct 23 2018, 09:55
% Dimension:          1
% Nodes:              193
% Expressions:        1
% Description:        Line graph
% x                       Height
0                         614.7190010027717
1.6028433640637486E-4     614.7973424923927
3.201839556876346E-4      614.8687122096457
4.7982673004648776E-4     614.9331101545309
6.393411493738095E-4      614.9905363270487
7.988560137323205E-4      615.0409907271988
9.58500122107595E-4       615.0844733549812
0.0011184019611720658     615.1209842103959
0.0012786893978073315     615.1505232934429
0.0014692881782178572     615.1725474303132
0.0016592398034323465     615.1768421640902
0.0018487589083489172     615.1634074947741
0.00203806159906999       615.1322434223647
0.0022273647228667317     615.0833499468622
0.0024168851255237504     615.0167270682665
0.002606838908709185      614.9323747865775
0.0027974407000143733     614.8302931017954
0.003000214284638094      614.7014559936414
0.0032022105766743216     614.5560562078393
0.003403687017647933      614.3940937443889
0.0036049030444305387     614.2155686032904
0.0038061191011872996     614.0204807845438
0.004007595631967136      613.8088302881489
0.00420959207329518       613.580617114106
0.00441236586612622       613.3358412624149
0.004615139632985625      613.0555142614205
0.004817136048636202      612.7717070940516
0.005018612553936322      612.4844197603084
0.005219828585313435      612.1936522601904
0.005421044586718146      611.8994045936981
0.0056225210022172924     611.6016767608313
0.005824517268584787      611.30046876159
0.006027290827249049      610.9957805959742
0.006217890949519272      610.6785422620816
0.006407844130704021      610.3809190524529
0.0065973647866391935     610.1029109670884
0.00678666880286996       609.8445180059879
0.006975972806121895      609.6057401691514
0.007165493423165078      609.3865774565788
0.007355446539677438      609.1870298682703
0.007546046571713631      609.0070974042259
0.00770633524869351       608.8733609679592
0.007866237248851195      608.7585105664601
0.008025880956992212      608.6625461997286
0.008185395381580456      608.5854678677646
0.008344909844757132      608.5272755705681
0.008504553668569658      608.4879693081393
0.008664455861201733      608.4675490804781
0.008824744806995652      608.4660148875843
0.008985029143401957      608.4861819694247
0.009144928762683142      608.5294817998607
0.009304571537041926      608.5959143788924
0.009464085956369179      608.6854797065197
0.00962360082072762       608.7981777827426
0.009783244929102828      608.9340086075613
0.009943146768167231      609.0929721809755
0.010103434204802428      609.2750685029853
0.010294032985212885      609.4856147360891
0.010483984610427306      609.7173361935896
0.01067350371534381       609.9702328754868
0.010862806406064813      610.2443047817807
0.011052109529861487      610.5395519124713
0.011241629932518437      610.8559742675585
0.011431583715703804      611.1935718470427
0.011622185507008923      611.5523446509234
0.011824959091632737      611.905790579362
0.012026955383669057      612.2514441353394
0.012228431824642762      612.5893053188558
0.01242964785142546       612.9193741299113
0.012630863908182311      613.2416505685055
0.012832340438962243      613.556134634639
0.01303433688029038       613.8628263283111
0.013237110673121513      614.1617256495224
0.013439884439981065      614.428791946493
0.013641880855631786      614.6751026355008
0.013843357360932049      614.9006577165458
0.014044573392309304      615.1054571896279
0.014245789393714157      615.2895010547472
0.014447265809213447      615.4527893119038
0.014649262075581083      615.5953219610974
0.01485203563424549       615.7170990023283
0.015042635756515686      615.8200370281471
0.015232588937700405      615.9052825980554
0.015422109593635547      615.9728357120534
0.015611413609866287      616.0226963701409
0.015800717613118194      616.054864572318
0.01599023823016135       616.0693403185848
0.01618019134667368       616.0661236089411
0.016370791378709844      616.045214443387
0.016531080055689654      615.9991546200732
0.01669098205584727       615.9502031407065
0.016850625763988217      615.898360005287
0.017010140188576394      615.8436252138146
0.017169654651752998      615.7859987662893
0.017329298475565455      615.7254806627109
0.017489200668197463      615.6620709030797
0.01764948961399131       615.5957694873955
0.01780977395039525       615.493564687188
0.017969673569674088      615.379116244609
0.018129316344030533      615.2524241596583
0.01828883076335545       615.1134884323359
0.01844834562771156       614.9623090626419
0.01860798973608443       614.7988860505762
0.018767891575146484      614.623219396139
0.018928179011779317      614.4353090993301
0.019118777792188433      614.1467639188169
0.019308729417401523      613.8344669548964
0.019498248522316707      613.498418207569
0.019687551213036395      613.1386176768344
0.019876854336831753      612.7550653626928
0.02006637473948738       612.3477612651442
0.020256328522671414      611.9167053841885
0.020446930313975188      611.4618977198257
0.02064970389860279       610.9120756571454
0.02085170019064286       610.3486589984728
0.02105317663162028       609.7716477438083
0.02125439265840668       609.1810418931517
0.021455608715167235      608.5768414465031
0.02165708524595088       607.9590464038624
0.021859081687282764      607.3276567652297
0.02206185548011769       606.6826725306049
0.022264629246980954      606.0369827930966
0.022466625662635346      605.4041789604188
0.022668102167939252      604.7842610325714
0.022869318199320136      604.1772290095544
0.023070534200728618      603.5830828913678
0.023272010616231548      603.0018226780116
0.023474006882602858      602.4334483694859
0.02367678044127098       601.8779599657905
0.02386738056353977       601.341714978136
0.024057333744723106      600.8419232147451
0.02424685440065687       600.3785846756177
0.024436158416886237      599.9516993607541
0.02462546242013677       599.5612672701542
0.024814983037178547      599.2072884038178
0.025004936153689494      598.8897627617451
0.025195536185724256      598.6086903439361
0.0253558248627017        598.3680897440754
0.025515726862856965      598.1584602800745
0.025675370570995573      597.979801951933
0.02583488499558142       597.8321147596514
0.02599439945875569       597.7153987032293
0.02615404328256581       597.629653782667
0.026313945475195465      597.5748799979642
0.026474234420986946      597.5510773491212
0.026634518757392422      597.553648716952
0.02679441837667279       597.5835699715519
0.026954061151030752      597.6408411129205
0.02711357557035719       597.7254621410581
0.027273090434714816      597.8374330559647
0.027432734543089202      597.97675385764
0.027592636382152785      598.1434245460844
0.02775292381878715       598.3374451212976
0.02794352259919713       598.5813169035968
0.02813347422441108       598.8605074664566
0.028322993329327112      599.1750168098773
0.028512296020047647      599.5248449338587
0.02870159914384385       599.9099918384009
0.028891119546500334      600.3304575235037
0.02908107332968523       600.7862419891674
0.029271675120989875      601.2773452353916
0.02947444870561504       601.8160311387188
0.029676444997652693      602.3671469753258
0.02987792143862772       602.9306927452129
0.030079137465411736      603.50666844838
0.030280353522169904      604.095074084827
0.030481830052951155      604.695909654554
0.030683826494280624      605.3091751575611
0.030886600287113104      605.9348705938481
0.03108937405397396       606.5459083503055
0.03129137046962597       607.1495743997525
0.03149284697492751       607.745868742189
0.03169406300630604       608.334791377615
0.03189527900771217       608.9163423060306
0.03209675542321274       609.4905215274357
0.03229875168958166       610.0573290418304
0.03250152524824737       610.6167648492146
0.03269212537051706       611.073333933311
0.03288207855170127       611.5037017774924
0.033071599207635916      611.9078683817588
0.033260903223866156      612.2858337461101
0.033450207227117564      612.6375978705464
0.033639727844160215      612.9631607550677
0.03382968096067204       613.2625223996741
0.034020280992707694      613.5356828043654
0.034180569669686675      613.7278512600827
0.03434047166984347       613.9073758069668
0.0345001153779836        614.0742564450176
0.03465962980257096       614.2284931742349
0.03481914426574675       614.3700859946191
0.034978788089558385      614.4990349061699
0.03513869028218957       614.6153399088874
0.035298979227982585      614.7190010027717
