% Model:              brazing.mph
% Version:            COMSOL 5.3.0.223
% Date:               Oct 23 2018, 09:55
% Dimension:          1
% Nodes:              145
% Expressions:        1
% Description:        Line graph
% x                       Height
0                         609.7935329432265
1.8037553861809572E-4     610.029974952724
3.5951128344368776E-4     610.2168550035366
5.377561773732229E-4      610.3541730956645
7.154644111300318E-4      610.4419292291077
8.929933875627798E-4      610.4801234038661
0.0010707015910786408     610.4687556199397
0.0012489464247083767     610.4078258773284
0.0014280820795340731     610.2973341760323
0.0016084574989771061     610.1372805160516
0.0017793134314883058     610.0717940702843
0.0019491114898538484     609.9834102931675
0.002118149876008701      609.8721291847014
0.0022867308232763497     609.737950744886
0.002455159027530182      609.5808749737213
0.0026237400128558564     609.4009018712072
0.0027927784749207734     609.1980314373437
0.0029625766466419693     608.9722636721309
0.0031334327293582195     608.7235985755689
0.0033042867504275058     608.5528594301127
0.0034740828875811486     608.3777888467093
0.0036431193341009516     608.1983868253593
0.0038116983146850476     608.0146533660624
0.003980124516686077      607.8265884688186
0.004148703455848711      607.634192133628
0.004317739819749776      607.4374643604903
0.004487535833529769      607.2364051494059
0.004658389691119368      607.0310145003745
0.0048387629974717405     606.9105517720582
0.005017896580971026      606.795907157419
0.005196139373513023      606.6870806564575
0.0053738455543625        606.5840722691734
0.005551372514551955      606.4868819955665
0.005729078726427549      606.3955098356371
0.005907321580834967      606.3099557893848
0.006086455256670912      606.2302198568101
0.006266828685292636      606.1563020379127
0.0064472042239161545     606.289888087635
0.0066263399687470585     606.43205033633
0.00680458486268183       606.5827887839981
0.0069822930964438265     606.7421034306392
0.007159822072881748      606.9099942762532
0.007337530276402798      607.0864613208402
0.007515775110037768      607.2715045643998
0.007694910764868775      607.4651240069327
0.007875286184317232      607.6673196484384
0.008046142116827224      607.922987753567
0.008215940175191578      608.1714035314084
0.008384978561345261      608.4125669819631
0.008553559508611747      608.6464781052308
0.008721987712864422      608.8731369012114
0.008890568698188937      609.0925433699052
0.00905960716025268       609.3046975113119
0.009229405331972688      609.5095993254319
0.009400261414687729      609.7072488122648
0.009571115435747398      610.0072322609566
0.009740911572891598      610.2796693050894
0.009909948019402086      610.5245599446637
0.010078526999976944      610.7419041796791
0.010246953201968763      610.9317020101357
0.010415532141122159      611.0939534360335
0.010584568505013912      611.2286584573725
0.010754364518784467      611.3358170741526
0.010925218376364454      611.415429286374
0.011105591682722255      611.5683357062678
0.01128472526622686       611.6782909946467
0.011462968058774099      611.745295151511
0.011640674239628768      611.7693481768605
0.011818201199823401      611.7504500706951
0.01199590741170419       611.6886008330152
0.012174150266116847      611.5838004638205
0.012353283941958112      611.4360489631108
0.012533657370585264      611.2453463308865
0.01271403176453574       611.2046616039727
0.012893166387683227      611.1138799739882
0.013071410176518557      610.9730014409333
0.013249117315197753      610.782026004808
0.013426645199902413      610.540953665612
0.013604352308338922      610.2497844233457
0.01378259603687098       609.9085182780086
0.013961730570013379      609.5171552296011
0.014142104844781908      609.0756952781232
0.014312959944399205      608.6979381565966
0.014482757184992078      608.2977458796659
0.014651794764271453      607.8751184473315
0.014820374911240972      607.4300558595932
0.014988802317395246      606.9625581164511
0.01515738250242126       606.4726252179051
0.015326420157607648      605.9602571639552
0.015496217511551624      605.4254539546014
0.015667072761367945      604.8682155898439
0.01583792791479403       604.3786538282619
0.016007725163749622      603.8969437748244
0.01617676270725794       603.423085429532
0.01634534277588875       602.9570787923841
0.016513770062946447      602.4989238633809
0.01668235009015449       602.0486206425225
0.016851387551041475      601.6061691298087
0.017021184676619543      601.1715693252396
0.017192039666560827      600.7448212288153
0.017372413817338207      600.3881673424984
0.017551548228302124      600.0572093847092
0.017729791836073705      599.751947355448
0.017907498824762332      599.4723812547147
0.018085026590318725      599.2185110825093
0.018262733610032132      598.9903368388319
0.018440977279666457      598.7878585236824
0.018620111782963036      598.6110761370608
0.018800486056004474      598.4599896789671
0.018980860449944497      598.5365754976702
0.019159995073081745      598.6437843486921
0.019338238861906984      598.7816162320328
0.01951594600057618       598.9500711476921
0.019693473885270874      599.1491490956704
0.019871180993697383      599.3788500759674
0.020049424722219357      599.6391740885831
0.02022855925535152       599.9301211335176
0.0204089335301096        600.2516912107708
0.02057978862980686       600.6286611501204
0.020749585870478253      601.0093476292908
0.020918623449835097      601.3937506482824
0.021087203596881453      601.7818702070949
0.021255631003112355      602.1737063057285
0.021424211188215206      602.569258944183
0.021593248843479067      602.9685281224585
0.021763046197501558      603.3715138405549
0.02193390144739785       603.7782160984725
0.022104756600747556      604.3113376696823
0.02227455384962815       604.8207455342882
0.02244359139306247       605.306439692291
0.022612171461619885      605.76842014369
0.022780598748604386      606.2066868884855
0.022949178775739036      606.6212399266775
0.02311821623655202       607.0120792582658
0.023288013362055097      607.3792048832505
0.023458868351919994      607.7226168016318
0.02363924250270423       608.1268732724017
0.023818376913674867      608.4875910738566
0.023996620521453065      608.8047702059969
0.02417432751014825       609.0784106688221
0.02435185527571118       609.3085124623327
0.024529562295431146      609.4950755865284
0.02470780596507209       609.6381000414093
0.024886940468375387      609.7375858269753
0.025067314741423676      609.7935329432265
