% Model:              brazing.mph
% Version:            COMSOL 5.3.0.223
% Date:               Oct 23 2018, 10:10
% Table:              Table 3 - 
% Time (s)               Temperature (Cp_Al = 932, k_Al = 153.2, sigma_Al = 3.5237E7, rho_Al = 2630.5, Cp_inlet = 872.1, k_inlet = 149.2, sigma_inlet = 3.6059E7, rho_inlet = 2937.5, Cp_outlet = 856, k_outlet = 144.3, sigma_outlet = 3.595E7, rho_outlet = 2446.5, Cp_outlet_sleeve = 917.8, k_outlet_sleeve = 163.2, sigma_outlet_sleeve = 3.6884E7, rho_outlet_sleeve = 2537.4, Cp_inlet_sleeve = 945.5, k_inlet_sleeve = 166, sigma_inlet_sleeve = 3.8848E7, rho_inlet_sleeve = 2814.9) (degC), Point: 55Temperature (Cp_Al = 932, k_Al = 153.2, sigma_Al = 3.5237E7, rho_Al = 2630.5, Cp_inlet = 872.1, k_inlet = 149.2, sigma_inlet = 3.6059E7, rho_inlet = 2937.5, Cp_outlet = 856, k_outlet = 144.3, sigma_outlet = 3.595E7, rho_outlet = 2446.5, Cp_outlet_sleeve = 917.8, k_outlet_sleeve = 163.2, sigma_outlet_sleeve = 3.6884E7, rho_outlet_sleeve = 2537.4, Cp_inlet_sleeve = 945.5, k_inlet_sleeve = 166, sigma_inlet_sleeve = 3.8848E7, rho_inlet_sleeve = 2814.9) (degC), Point: 56Temperature (Cp_Al = 932, k_Al = 153.2, sigma_Al = 3.5237E7, rho_Al = 2630.5, Cp_inlet = 872.1, k_inlet = 149.2, sigma_inlet = 3.6059E7, rho_inlet = 2937.5, Cp_outlet = 856, k_outlet = 144.3, sigma_outlet = 3.595E7, rho_outlet = 2446.5, Cp_outlet_sleeve = 917.8, k_outlet_sleeve = 163.2, sigma_outlet_sleeve = 3.6884E7, rho_outlet_sleeve = 2537.4, Cp_inlet_sleeve = 945.5, k_inlet_sleeve = 166, sigma_inlet_sleeve = 3.8848E7, rho_inlet_sleeve = 2814.9) (degC), Point: 60Temperature (Cp_Al = 932, k_Al = 153.2, sigma_Al = 3.5237E7, rho_Al = 2630.5, Cp_inlet = 872.1, k_inlet = 149.2, sigma_inlet = 3.6059E7, rho_inlet = 2937.5, Cp_outlet = 856, k_outlet = 144.3, sigma_outlet = 3.595E7, rho_outlet = 2446.5, Cp_outlet_sleeve = 917.8, k_outlet_sleeve = 163.2, sigma_outlet_sleeve = 3.6884E7, rho_outlet_sleeve = 2537.4, Cp_inlet_sleeve = 945.5, k_inlet_sleeve = 166, sigma_inlet_sleeve = 3.8848E7, rho_inlet_sleeve = 2814.9) (degC), Point: 69Temperature (Cp_Al = 932, k_Al = 153.2, sigma_Al = 3.5237E7, rho_Al = 2630.5, Cp_inlet = 872.1, k_inlet = 149.2, sigma_inlet = 3.6059E7, rho_inlet = 2937.5, Cp_outlet = 856, k_outlet = 144.3, sigma_outlet = 3.595E7, rho_outlet = 2446.5, Cp_outlet_sleeve = 917.8, k_outlet_sleeve = 163.2, sigma_outlet_sleeve = 3.6884E7, rho_outlet_sleeve = 2537.4, Cp_inlet_sleeve = 945.5, k_inlet_sleeve = 166, sigma_inlet_sleeve = 3.8848E7, rho_inlet_sleeve = 2814.9) (degC), Point: 90Temperature (Cp_Al = 932, k_Al = 153.2, sigma_Al = 3.5237E7, rho_Al = 2630.5, Cp_inlet = 872.1, k_inlet = 149.2, sigma_inlet = 3.6059E7, rho_inlet = 2937.5, Cp_outlet = 856, k_outlet = 144.3, sigma_outlet = 3.595E7, rho_outlet = 2446.5, Cp_outlet_sleeve = 917.8, k_outlet_sleeve = 163.2, sigma_outlet_sleeve = 3.6884E7, rho_outlet_sleeve = 2537.4, Cp_inlet_sleeve = 945.5, k_inlet_sleeve = 166, sigma_inlet_sleeve = 3.8848E7, rho_inlet_sleeve = 2814.9) (degC), Point: 98Temperature (Cp_Al = 932, k_Al = 153.2, sigma_Al = 3.5237E7, rho_Al = 2630.5, Cp_inlet = 872.1, k_inlet = 149.2, sigma_inlet = 3.6059E7, rho_inlet = 2937.5, Cp_outlet = 856, k_outlet = 144.3, sigma_outlet = 3.595E7, rho_outlet = 2446.5, Cp_outlet_sleeve = 917.8, k_outlet_sleeve = 163.2, sigma_outlet_sleeve = 3.6884E7, rho_outlet_sleeve = 2537.4, Cp_inlet_sleeve = 945.5, k_inlet_sleeve = 166, sigma_inlet_sleeve = 3.8848E7, rho_inlet_sleeve = 2814.9) (degC), Point: 102Temperature (Cp_Al = 932, k_Al = 153.2, sigma_Al = 3.5237E7, rho_Al = 2630.5, Cp_inlet = 872.1, k_inlet = 149.2, sigma_inlet = 3.6059E7, rho_inlet = 2937.5, Cp_outlet = 856, k_outlet = 144.3, sigma_outlet = 3.595E7, rho_outlet = 2446.5, Cp_outlet_sleeve = 917.8, k_outlet_sleeve = 163.2, sigma_outlet_sleeve = 3.6884E7, rho_outlet_sleeve = 2537.4, Cp_inlet_sleeve = 945.5, k_inlet_sleeve = 166, sigma_inlet_sleeve = 3.8848E7, rho_inlet_sleeve = 2814.9) (degC), Point: 127Temperature (Cp_Al = 932, k_Al = 153.2, sigma_Al = 3.5237E7, rho_Al = 2630.5, Cp_inlet = 872.1, k_inlet = 149.2, sigma_inlet = 3.6059E7, rho_inlet = 2937.5, Cp_outlet = 856, k_outlet = 144.3, sigma_outlet = 3.595E7, rho_outlet = 2446.5, Cp_outlet_sleeve = 917.8, k_outlet_sleeve = 163.2, sigma_outlet_sleeve = 3.6884E7, rho_outlet_sleeve = 2537.4, Cp_inlet_sleeve = 945.5, k_inlet_sleeve = 166, sigma_inlet_sleeve = 3.8848E7, rho_inlet_sleeve = 2814.9) (degC), Point: 128Temperature (Cp_Al = 932, k_Al = 153.2, sigma_Al = 3.5237E7, rho_Al = 2630.5, Cp_inlet = 872.1, k_inlet = 149.2, sigma_inlet = 3.6059E7, rho_inlet = 2937.5, Cp_outlet = 856, k_outlet = 144.3, sigma_outlet = 3.595E7, rho_outlet = 2446.5, Cp_outlet_sleeve = 917.8, k_outlet_sleeve = 163.2, sigma_outlet_sleeve = 3.6884E7, rho_outlet_sleeve = 2537.4, Cp_inlet_sleeve = 945.5, k_inlet_sleeve = 166, sigma_inlet_sleeve = 3.8848E7, rho_inlet_sleeve = 2814.9) (degC), Point: 134Temperature (Cp_Al = 932, k_Al = 153.2, sigma_Al = 3.5237E7, rho_Al = 2630.5, Cp_inlet = 872.1, k_inlet = 149.2, sigma_inlet = 3.6059E7, rho_inlet = 2937.5, Cp_outlet = 856, k_outlet = 144.3, sigma_outlet = 3.595E7, rho_outlet = 2446.5, Cp_outlet_sleeve = 917.8, k_outlet_sleeve = 163.2, sigma_outlet_sleeve = 3.6884E7, rho_outlet_sleeve = 2537.4, Cp_inlet_sleeve = 945.5, k_inlet_sleeve = 166, sigma_inlet_sleeve = 3.8848E7, rho_inlet_sleeve = 2814.9) (degC), Point: 138Temperature (Cp_Al = 932, k_Al = 153.2, sigma_Al = 3.5237E7, rho_Al = 2630.5, Cp_inlet = 872.1, k_inlet = 149.2, sigma_inlet = 3.6059E7, rho_inlet = 2937.5, Cp_outlet = 856, k_outlet = 144.3, sigma_outlet = 3.595E7, rho_outlet = 2446.5, Cp_outlet_sleeve = 917.8, k_outlet_sleeve = 163.2, sigma_outlet_sleeve = 3.6884E7, rho_outlet_sleeve = 2537.4, Cp_inlet_sleeve = 945.5, k_inlet_sleeve = 166, sigma_inlet_sleeve = 3.8848E7, rho_inlet_sleeve = 2814.9) (degC), Point: 151Temperature (Cp_Al = 932, k_Al = 153.2, sigma_Al = 3.5237E7, rho_Al = 2630.5, Cp_inlet = 872.1, k_inlet = 149.2, sigma_inlet = 3.6059E7, rho_inlet = 2937.5, Cp_outlet = 856, k_outlet = 144.3, sigma_outlet = 3.595E7, rho_outlet = 2446.5, Cp_outlet_sleeve = 917.8, k_outlet_sleeve = 163.2, sigma_outlet_sleeve = 3.6884E7, rho_outlet_sleeve = 2537.4, Cp_inlet_sleeve = 945.5, k_inlet_sleeve = 166, sigma_inlet_sleeve = 3.8848E7, rho_inlet_sleeve = 2814.9) (degC), Point: 154Temperature (Cp_Al = 932, k_Al = 153.2, sigma_Al = 3.5237E7, rho_Al = 2630.5, Cp_inlet = 872.1, k_inlet = 149.2, sigma_inlet = 3.6059E7, rho_inlet = 2937.5, Cp_outlet = 856, k_outlet = 144.3, sigma_outlet = 3.595E7, rho_outlet = 2446.5, Cp_outlet_sleeve = 917.8, k_outlet_sleeve = 163.2, sigma_outlet_sleeve = 3.6884E7, rho_outlet_sleeve = 2537.4, Cp_inlet_sleeve = 945.5, k_inlet_sleeve = 166, sigma_inlet_sleeve = 3.8848E7, rho_inlet_sleeve = 2814.9) (degC), Point: 159Temperature (Cp_Al = 932, k_Al = 153.2, sigma_Al = 3.5237E7, rho_Al = 2630.5, Cp_inlet = 872.1, k_inlet = 149.2, sigma_inlet = 3.6059E7, rho_inlet = 2937.5, Cp_outlet = 856, k_outlet = 144.3, sigma_outlet = 3.595E7, rho_outlet = 2446.5, Cp_outlet_sleeve = 917.8, k_outlet_sleeve = 163.2, sigma_outlet_sleeve = 3.6884E7, rho_outlet_sleeve = 2537.4, Cp_inlet_sleeve = 945.5, k_inlet_sleeve = 166, sigma_inlet_sleeve = 3.8848E7, rho_inlet_sleeve = 2814.9) (degC), Point: 163Temperature (Cp_Al = 932, k_Al = 153.2, sigma_Al = 3.5237E7, rho_Al = 2630.5, Cp_inlet = 872.1, k_inlet = 149.2, sigma_inlet = 3.6059E7, rho_inlet = 2937.5, Cp_outlet = 856, k_outlet = 144.3, sigma_outlet = 3.595E7, rho_outlet = 2446.5, Cp_outlet_sleeve = 917.8, k_outlet_sleeve = 163.2, sigma_outlet_sleeve = 3.6884E7, rho_outlet_sleeve = 2537.4, Cp_inlet_sleeve = 945.5, k_inlet_sleeve = 166, sigma_inlet_sleeve = 3.8848E7, rho_inlet_sleeve = 2814.9) (degC), Point: 167Temperature (Cp_Al = 932, k_Al = 153.2, sigma_Al = 3.5237E7, rho_Al = 2630.5, Cp_inlet = 872.1, k_inlet = 149.2, sigma_inlet = 3.6059E7, rho_inlet = 2937.5, Cp_outlet = 856, k_outlet = 144.3, sigma_outlet = 3.595E7, rho_outlet = 2446.5, Cp_outlet_sleeve = 917.8, k_outlet_sleeve = 163.2, sigma_outlet_sleeve = 3.6884E7, rho_outlet_sleeve = 2537.4, Cp_inlet_sleeve = 945.5, k_inlet_sleeve = 166, sigma_inlet_sleeve = 3.8848E7, rho_inlet_sleeve = 2814.9) (degC), Point: 168Temperature (Cp_Al = 932, k_Al = 153.2, sigma_Al = 3.5237E7, rho_Al = 2630.5, Cp_inlet = 872.1, k_inlet = 149.2, sigma_inlet = 3.6059E7, rho_inlet = 2937.5, Cp_outlet = 856, k_outlet = 144.3, sigma_outlet = 3.595E7, rho_outlet = 2446.5, Cp_outlet_sleeve = 917.8, k_outlet_sleeve = 163.2, sigma_outlet_sleeve = 3.6884E7, rho_outlet_sleeve = 2537.4, Cp_inlet_sleeve = 945.5, k_inlet_sleeve = 166, sigma_inlet_sleeve = 3.8848E7, rho_inlet_sleeve = 2814.9) (degC), Point: 172Temperature (Cp_Al = 932, k_Al = 153.2, sigma_Al = 3.5237E7, rho_Al = 2630.5, Cp_inlet = 872.1, k_inlet = 149.2, sigma_inlet = 3.6059E7, rho_inlet = 2937.5, Cp_outlet = 856, k_outlet = 144.3, sigma_outlet = 3.595E7, rho_outlet = 2446.5, Cp_outlet_sleeve = 917.8, k_outlet_sleeve = 163.2, sigma_outlet_sleeve = 3.6884E7, rho_outlet_sleeve = 2537.4, Cp_inlet_sleeve = 945.5, k_inlet_sleeve = 166, sigma_inlet_sleeve = 3.8848E7, rho_inlet_sleeve = 2814.9) (degC), Point: 181Temperature (Cp_Al = 932, k_Al = 153.2, sigma_Al = 3.5237E7, rho_Al = 2630.5, Cp_inlet = 872.1, k_inlet = 149.2, sigma_inlet = 3.6059E7, rho_inlet = 2937.5, Cp_outlet = 856, k_outlet = 144.3, sigma_outlet = 3.595E7, rho_outlet = 2446.5, Cp_outlet_sleeve = 917.8, k_outlet_sleeve = 163.2, sigma_outlet_sleeve = 3.6884E7, rho_outlet_sleeve = 2537.4, Cp_inlet_sleeve = 945.5, k_inlet_sleeve = 166, sigma_inlet_sleeve = 3.8848E7, rho_inlet_sleeve = 2814.9) (degC), Point: 201Temperature (Cp_Al = 932, k_Al = 153.2, sigma_Al = 3.5237E7, rho_Al = 2630.5, Cp_inlet = 872.1, k_inlet = 149.2, sigma_inlet = 3.6059E7, rho_inlet = 2937.5, Cp_outlet = 856, k_outlet = 144.3, sigma_outlet = 3.595E7, rho_outlet = 2446.5, Cp_outlet_sleeve = 917.8, k_outlet_sleeve = 163.2, sigma_outlet_sleeve = 3.6884E7, rho_outlet_sleeve = 2537.4, Cp_inlet_sleeve = 945.5, k_inlet_sleeve = 166, sigma_inlet_sleeve = 3.8848E7, rho_inlet_sleeve = 2814.9) (degC), Point: 210Temperature (Cp_Al = 932, k_Al = 153.2, sigma_Al = 3.5237E7, rho_Al = 2630.5, Cp_inlet = 872.1, k_inlet = 149.2, sigma_inlet = 3.6059E7, rho_inlet = 2937.5, Cp_outlet = 856, k_outlet = 144.3, sigma_outlet = 3.595E7, rho_outlet = 2446.5, Cp_outlet_sleeve = 917.8, k_outlet_sleeve = 163.2, sigma_outlet_sleeve = 3.6884E7, rho_outlet_sleeve = 2537.4, Cp_inlet_sleeve = 945.5, k_inlet_sleeve = 166, sigma_inlet_sleeve = 3.8848E7, rho_inlet_sleeve = 2814.9) (degC), Point: 213Temperature (Cp_Al = 932, k_Al = 153.2, sigma_Al = 3.5237E7, rho_Al = 2630.5, Cp_inlet = 872.1, k_inlet = 149.2, sigma_inlet = 3.6059E7, rho_inlet = 2937.5, Cp_outlet = 856, k_outlet = 144.3, sigma_outlet = 3.595E7, rho_outlet = 2446.5, Cp_outlet_sleeve = 917.8, k_outlet_sleeve = 163.2, sigma_outlet_sleeve = 3.6884E7, rho_outlet_sleeve = 2537.4, Cp_inlet_sleeve = 945.5, k_inlet_sleeve = 166, sigma_inlet_sleeve = 3.8848E7, rho_inlet_sleeve = 2814.9) (degC), Point: 215Temperature (Cp_Al = 932, k_Al = 153.2, sigma_Al = 3.5237E7, rho_Al = 2630.5, Cp_inlet = 872.1, k_inlet = 149.2, sigma_inlet = 3.6059E7, rho_inlet = 2937.5, Cp_outlet = 856, k_outlet = 144.3, sigma_outlet = 3.595E7, rho_outlet = 2446.5, Cp_outlet_sleeve = 917.8, k_outlet_sleeve = 163.2, sigma_outlet_sleeve = 3.6884E7, rho_outlet_sleeve = 2537.4, Cp_inlet_sleeve = 945.5, k_inlet_sleeve = 166, sigma_inlet_sleeve = 3.8848E7, rho_inlet_sleeve = 2814.9) (degC), Point: 229Temperature (Cp_Al = 932, k_Al = 153.2, sigma_Al = 3.5237E7, rho_Al = 2630.5, Cp_inlet = 872.1, k_inlet = 149.2, sigma_inlet = 3.6059E7, rho_inlet = 2937.5, Cp_outlet = 856, k_outlet = 144.3, sigma_outlet = 3.595E7, rho_outlet = 2446.5, Cp_outlet_sleeve = 917.8, k_outlet_sleeve = 163.2, sigma_outlet_sleeve = 3.6884E7, rho_outlet_sleeve = 2537.4, Cp_inlet_sleeve = 945.5, k_inlet_sleeve = 166, sigma_inlet_sleeve = 3.8848E7, rho_inlet_sleeve = 2814.9) (degC), Point: 232Temperature (Cp_Al = 932, k_Al = 153.2, sigma_Al = 3.5237E7, rho_Al = 2630.5, Cp_inlet = 872.1, k_inlet = 149.2, sigma_inlet = 3.6059E7, rho_inlet = 2937.5, Cp_outlet = 856, k_outlet = 144.3, sigma_outlet = 3.595E7, rho_outlet = 2446.5, Cp_outlet_sleeve = 917.8, k_outlet_sleeve = 163.2, sigma_outlet_sleeve = 3.6884E7, rho_outlet_sleeve = 2537.4, Cp_inlet_sleeve = 945.5, k_inlet_sleeve = 166, sigma_inlet_sleeve = 3.8848E7, rho_inlet_sleeve = 2814.9) (degC), Point: 239Temperature (Cp_Al = 932, k_Al = 153.2, sigma_Al = 3.5237E7, rho_Al = 2630.5, Cp_inlet = 872.1, k_inlet = 149.2, sigma_inlet = 3.6059E7, rho_inlet = 2937.5, Cp_outlet = 856, k_outlet = 144.3, sigma_outlet = 3.595E7, rho_outlet = 2446.5, Cp_outlet_sleeve = 917.8, k_outlet_sleeve = 163.2, sigma_outlet_sleeve = 3.6884E7, rho_outlet_sleeve = 2537.4, Cp_inlet_sleeve = 945.5, k_inlet_sleeve = 166, sigma_inlet_sleeve = 3.8848E7, rho_inlet_sleeve = 2814.9) (degC), Point: 252Temperature (Cp_Al = 932, k_Al = 153.2, sigma_Al = 3.5237E7, rho_Al = 2630.5, Cp_inlet = 872.1, k_inlet = 149.2, sigma_inlet = 3.6059E7, rho_inlet = 2937.5, Cp_outlet = 856, k_outlet = 144.3, sigma_outlet = 3.595E7, rho_outlet = 2446.5, Cp_outlet_sleeve = 917.8, k_outlet_sleeve = 163.2, sigma_outlet_sleeve = 3.6884E7, rho_outlet_sleeve = 2537.4, Cp_inlet_sleeve = 945.5, k_inlet_sleeve = 166, sigma_inlet_sleeve = 3.8848E7, rho_inlet_sleeve = 2814.9) (degC), Point: 261Temperature (Cp_Al = 932, k_Al = 153.2, sigma_Al = 3.5237E7, rho_Al = 2630.5, Cp_inlet = 872.1, k_inlet = 149.2, sigma_inlet = 3.6059E7, rho_inlet = 2937.5, Cp_outlet = 856, k_outlet = 144.3, sigma_outlet = 3.595E7, rho_outlet = 2446.5, Cp_outlet_sleeve = 917.8, k_outlet_sleeve = 163.2, sigma_outlet_sleeve = 3.6884E7, rho_outlet_sleeve = 2537.4, Cp_inlet_sleeve = 945.5, k_inlet_sleeve = 166, sigma_inlet_sleeve = 3.8848E7, rho_inlet_sleeve = 2814.9) (degC), Point: 270Temperature (Cp_Al = 932, k_Al = 153.2, sigma_Al = 3.5237E7, rho_Al = 2630.5, Cp_inlet = 872.1, k_inlet = 149.2, sigma_inlet = 3.6059E7, rho_inlet = 2937.5, Cp_outlet = 856, k_outlet = 144.3, sigma_outlet = 3.595E7, rho_outlet = 2446.5, Cp_outlet_sleeve = 917.8, k_outlet_sleeve = 163.2, sigma_outlet_sleeve = 3.6884E7, rho_outlet_sleeve = 2537.4, Cp_inlet_sleeve = 945.5, k_inlet_sleeve = 166, sigma_inlet_sleeve = 3.8848E7, rho_inlet_sleeve = 2814.9) (degC), Point: 273Temperature (Cp_Al = 932, k_Al = 153.2, sigma_Al = 3.5237E7, rho_Al = 2630.5, Cp_inlet = 872.1, k_inlet = 149.2, sigma_inlet = 3.6059E7, rho_inlet = 2937.5, Cp_outlet = 856, k_outlet = 144.3, sigma_outlet = 3.595E7, rho_outlet = 2446.5, Cp_outlet_sleeve = 917.8, k_outlet_sleeve = 163.2, sigma_outlet_sleeve = 3.6884E7, rho_outlet_sleeve = 2537.4, Cp_inlet_sleeve = 945.5, k_inlet_sleeve = 166, sigma_inlet_sleeve = 3.8848E7, rho_inlet_sleeve = 2814.9) (degC), Point: 275
0                        21.59946067538999        21.01155617447364        21.131902199278045       21.008995534814858       21.01241771481517        21.108380820291984       21.0080666556496         21.022755053480523       21.0013091837547         21.024613733760987       21.001137828043966       21.00059782524744        21.009533159403247       21.000101751899592       21.006763099658258       21.019592955756934       21.000053210284932       21.011534593032934       21.000754744731864       21.0003036563848         21.001767448927183       21.000161621563677       21.000247407194422       21.00805085288522        21.11890644166806        21.011932201426816       21.483893090786864       21.00888838101241        21.144796079942296       21.01466077079465        21.66692715072037
3                        306.2909963376221        271.69027385511356       283.02363735894517       279.03778128719387       245.39108173973136       257.46732690115755       255.55975181358224       244.3740380297346        240.02967163347125       250.07749689644766       251.85917656398385       243.40574711412125       241.01483113781887       229.29641721239756       233.7528888796026        238.73786953783298       233.9333595007609        244.30435741064184       246.28469515801817       239.6555807745965        238.30237159323127       230.45703393330268       233.48313832612882       257.62940624212524       259.96684383168986       246.96737227871733       278.3630436523026        280.91243293720754       285.1408349488926        271.1833039923945        310.70063296066564
6                        431.81573905784865       395.6527130275173        410.77370708992          407.5168311390902        365.7499809012961        382.5881079893877        381.7129805588431        366.4808097354986        360.22414311794273       375.086183754438         377.9051930170692        369.44123471554246       366.01748973237034       349.4787335874388        355.8394854469335        363.0384189247418        356.59959834845154       370.941918955491         373.68625820930356       366.9694664168725        364.9126425338668        353.27699302556925       357.878987880825         383.5681339767399        384.84756501712627       366.98317612984704       400.3091619042916        407.00548374494383       410.4885023604895        392.50350980867495       433.6944502599755
9                        505.56313018623507       468.4740709371347        486.300918859818         483.7814786481407        435.514706715271         455.61464390432343       455.65459593445837       437.2582045134578        429.88912419092867       448.05010446783433       451.7876379145712        443.3179277111975        438.9772733728621        419.13693214326054       426.60136402368175       435.8793664720167        428.46766302068477       445.6459126883195        449.15723133043355       442.59690822410494       439.80531054287474       425.4310664892862        430.97443307920094       457.3953198239535        457.73652721430415       436.54013495359266       470.98828741229954       481.811890445577         484.5293228239499        463.64606109288707       505.8423558670553
12                       555.2747159293316        517.5704233456757        537.3772838446952        535.4683572457692        482.00112439342          504.3741895654447        505.12070656827837       484.3916532985654        476.3133895237928        496.77229760498176       501.2186644570879        492.7446751029412        487.6953594400692        465.5536369249803        473.7209432903687        485.0624746395206        477.00438717781594       496.25175588979073       500.39562469810505       493.9251029595697        490.5144703978208        474.11752664645485       480.2899241984511        506.79452910593363       506.41102339748363       482.8936009593283        518.0569771047367        532.6756578594634        534.7510274022937        511.7359476027983        554.6037214880954
15                       593.0551790356624        554.8989315878696        576.2421025643131        574.8357777279982        517.0271673244506        541.0692443470721        542.3596308639336        519.871459395612         511.2966888039857        533.442173767762         538.4340511230535        529.9597132484371        524.3647287319934        500.5335756151326        509.19268146341767       522.5041036796413        513.9723982345417        534.8197089744779        539.4829222674208        533.0949540903121        529.1693786373062        511.19332463145975       517.8295233527917        543.9918753561503        543.0504487749666        517.8299947317837        553.4938471305969        571.5553448643428        573.098171132291         548.4255238498881        591.7869608550133
18                       623.1100870482985        584.6104446672945        607.1804398412933        606.1953050746465        544.6209400136014        569.9145973940495        571.6301745742173        547.7912340278488        538.8609890469194        562.2706359970316        567.688892786906         559.2160919556057        553.1943904263643        528.0967396481203        537.107694538759         552.338036796377         543.4475774250132        565.5683024742704        570.665775884            564.3570146108374        559.9966689901465        540.753922115013         547.7433987946172        573.2371472330537        571.8595187219325        545.3630864885488        581.3849702499238        602.6345579587538        603.7288208019703        577.7316787173953        621.4678455285932
21                       648.5501055412742        609.7751268640426        633.363471097519         632.7388341665915        567.7816342461906        594.0571673683779        596.1164085996812        571.199772237979         562.0006213747092        586.4014778478712        592.1642799257781        583.6939125164023        577.3272711841248        551.2365177987135        560.5134493832081        577.6257033764816        568.4485513351682        591.6231467009675        597.0916257649619        590.8578801326022        586.1239360039601        565.8276783178328        573.1005154333491        597.707849879914         595.9776956661769        568.4813386035122        604.7737738013274        629.0138156705078        629.7233697635822        602.6283788493544        646.6640006250412
24                       671.0771015227436        632.0728105644357        656.5284818134393        656.2165756174732        588.1842171953612        615.2623857262329        617.6086524595133        591.8005063770837        582.3877031211326        607.5983266302494        613.6488164881158        605.1812851601186        598.5265586854582        571.624494543926         581.1126142929169        600.0427390266045        590.6276055487946        614.6973867630584        620.487189949525         614.3227194865887        609.2641605335922        588.0704972393632        595.5790421911533        619.1906384657672        617.1661393652595        588.8534438508617        625.3605643167258        652.3938932590083        652.7697424406658        624.7423500931301        669.0261633976878
27                       691.6295926024973        652.4300944878903        677.6345871829251        677.5955937617383        606.7856033552004        634.5414549959221        637.133858499091         610.5666513769528        600.9774207322532        626.8713065919578        633.1684343152792        624.7038575773549        617.8021144626059        590.2155074393401        599.877921990258         620.512985429836         610.8958713503481        635.7367540280268        641.8065729371892        635.7049061028816        630.3629795703379        608.3951509937309        616.1039571286449        638.710306112105         636.4334923917146        607.4324853098917        644.1166459274112        673.7146922211879        673.7996629311444        644.9699329830007        689.4639248345593
