% Model:              brazing.mph
% Version:            COMSOL 5.3.0.223
% Date:               Oct 23 2018, 10:09
% Table:              Table 3 - 
% Time (s)               Temperature (Cp_Al = 916.9, k_Al = 164.3, sigma_Al = 3.7193E7, rho_Al = 2440.4, Cp_inlet = 812.4, k_inlet = 151.4, sigma_inlet = 4.058E7, rho_inlet = 2671.7, Cp_outlet = 825, k_outlet = 152.2, sigma_outlet = 4.036E7, rho_outlet = 2625.1, Cp_outlet_sleeve = 901.9, k_outlet_sleeve = 151.3, sigma_outlet_sleeve = 3.9847E7, rho_outlet_sleeve = 2895.3, Cp_inlet_sleeve = 897, k_inlet_sleeve = 157.2, sigma_inlet_sleeve = 4.0656E7, rho_inlet_sleeve = 2621.8) (degC), Point: 55Temperature (Cp_Al = 916.9, k_Al = 164.3, sigma_Al = 3.7193E7, rho_Al = 2440.4, Cp_inlet = 812.4, k_inlet = 151.4, sigma_inlet = 4.058E7, rho_inlet = 2671.7, Cp_outlet = 825, k_outlet = 152.2, sigma_outlet = 4.036E7, rho_outlet = 2625.1, Cp_outlet_sleeve = 901.9, k_outlet_sleeve = 151.3, sigma_outlet_sleeve = 3.9847E7, rho_outlet_sleeve = 2895.3, Cp_inlet_sleeve = 897, k_inlet_sleeve = 157.2, sigma_inlet_sleeve = 4.0656E7, rho_inlet_sleeve = 2621.8) (degC), Point: 56Temperature (Cp_Al = 916.9, k_Al = 164.3, sigma_Al = 3.7193E7, rho_Al = 2440.4, Cp_inlet = 812.4, k_inlet = 151.4, sigma_inlet = 4.058E7, rho_inlet = 2671.7, Cp_outlet = 825, k_outlet = 152.2, sigma_outlet = 4.036E7, rho_outlet = 2625.1, Cp_outlet_sleeve = 901.9, k_outlet_sleeve = 151.3, sigma_outlet_sleeve = 3.9847E7, rho_outlet_sleeve = 2895.3, Cp_inlet_sleeve = 897, k_inlet_sleeve = 157.2, sigma_inlet_sleeve = 4.0656E7, rho_inlet_sleeve = 2621.8) (degC), Point: 60Temperature (Cp_Al = 916.9, k_Al = 164.3, sigma_Al = 3.7193E7, rho_Al = 2440.4, Cp_inlet = 812.4, k_inlet = 151.4, sigma_inlet = 4.058E7, rho_inlet = 2671.7, Cp_outlet = 825, k_outlet = 152.2, sigma_outlet = 4.036E7, rho_outlet = 2625.1, Cp_outlet_sleeve = 901.9, k_outlet_sleeve = 151.3, sigma_outlet_sleeve = 3.9847E7, rho_outlet_sleeve = 2895.3, Cp_inlet_sleeve = 897, k_inlet_sleeve = 157.2, sigma_inlet_sleeve = 4.0656E7, rho_inlet_sleeve = 2621.8) (degC), Point: 69Temperature (Cp_Al = 916.9, k_Al = 164.3, sigma_Al = 3.7193E7, rho_Al = 2440.4, Cp_inlet = 812.4, k_inlet = 151.4, sigma_inlet = 4.058E7, rho_inlet = 2671.7, Cp_outlet = 825, k_outlet = 152.2, sigma_outlet = 4.036E7, rho_outlet = 2625.1, Cp_outlet_sleeve = 901.9, k_outlet_sleeve = 151.3, sigma_outlet_sleeve = 3.9847E7, rho_outlet_sleeve = 2895.3, Cp_inlet_sleeve = 897, k_inlet_sleeve = 157.2, sigma_inlet_sleeve = 4.0656E7, rho_inlet_sleeve = 2621.8) (degC), Point: 90Temperature (Cp_Al = 916.9, k_Al = 164.3, sigma_Al = 3.7193E7, rho_Al = 2440.4, Cp_inlet = 812.4, k_inlet = 151.4, sigma_inlet = 4.058E7, rho_inlet = 2671.7, Cp_outlet = 825, k_outlet = 152.2, sigma_outlet = 4.036E7, rho_outlet = 2625.1, Cp_outlet_sleeve = 901.9, k_outlet_sleeve = 151.3, sigma_outlet_sleeve = 3.9847E7, rho_outlet_sleeve = 2895.3, Cp_inlet_sleeve = 897, k_inlet_sleeve = 157.2, sigma_inlet_sleeve = 4.0656E7, rho_inlet_sleeve = 2621.8) (degC), Point: 98Temperature (Cp_Al = 916.9, k_Al = 164.3, sigma_Al = 3.7193E7, rho_Al = 2440.4, Cp_inlet = 812.4, k_inlet = 151.4, sigma_inlet = 4.058E7, rho_inlet = 2671.7, Cp_outlet = 825, k_outlet = 152.2, sigma_outlet = 4.036E7, rho_outlet = 2625.1, Cp_outlet_sleeve = 901.9, k_outlet_sleeve = 151.3, sigma_outlet_sleeve = 3.9847E7, rho_outlet_sleeve = 2895.3, Cp_inlet_sleeve = 897, k_inlet_sleeve = 157.2, sigma_inlet_sleeve = 4.0656E7, rho_inlet_sleeve = 2621.8) (degC), Point: 102Temperature (Cp_Al = 916.9, k_Al = 164.3, sigma_Al = 3.7193E7, rho_Al = 2440.4, Cp_inlet = 812.4, k_inlet = 151.4, sigma_inlet = 4.058E7, rho_inlet = 2671.7, Cp_outlet = 825, k_outlet = 152.2, sigma_outlet = 4.036E7, rho_outlet = 2625.1, Cp_outlet_sleeve = 901.9, k_outlet_sleeve = 151.3, sigma_outlet_sleeve = 3.9847E7, rho_outlet_sleeve = 2895.3, Cp_inlet_sleeve = 897, k_inlet_sleeve = 157.2, sigma_inlet_sleeve = 4.0656E7, rho_inlet_sleeve = 2621.8) (degC), Point: 127Temperature (Cp_Al = 916.9, k_Al = 164.3, sigma_Al = 3.7193E7, rho_Al = 2440.4, Cp_inlet = 812.4, k_inlet = 151.4, sigma_inlet = 4.058E7, rho_inlet = 2671.7, Cp_outlet = 825, k_outlet = 152.2, sigma_outlet = 4.036E7, rho_outlet = 2625.1, Cp_outlet_sleeve = 901.9, k_outlet_sleeve = 151.3, sigma_outlet_sleeve = 3.9847E7, rho_outlet_sleeve = 2895.3, Cp_inlet_sleeve = 897, k_inlet_sleeve = 157.2, sigma_inlet_sleeve = 4.0656E7, rho_inlet_sleeve = 2621.8) (degC), Point: 128Temperature (Cp_Al = 916.9, k_Al = 164.3, sigma_Al = 3.7193E7, rho_Al = 2440.4, Cp_inlet = 812.4, k_inlet = 151.4, sigma_inlet = 4.058E7, rho_inlet = 2671.7, Cp_outlet = 825, k_outlet = 152.2, sigma_outlet = 4.036E7, rho_outlet = 2625.1, Cp_outlet_sleeve = 901.9, k_outlet_sleeve = 151.3, sigma_outlet_sleeve = 3.9847E7, rho_outlet_sleeve = 2895.3, Cp_inlet_sleeve = 897, k_inlet_sleeve = 157.2, sigma_inlet_sleeve = 4.0656E7, rho_inlet_sleeve = 2621.8) (degC), Point: 134Temperature (Cp_Al = 916.9, k_Al = 164.3, sigma_Al = 3.7193E7, rho_Al = 2440.4, Cp_inlet = 812.4, k_inlet = 151.4, sigma_inlet = 4.058E7, rho_inlet = 2671.7, Cp_outlet = 825, k_outlet = 152.2, sigma_outlet = 4.036E7, rho_outlet = 2625.1, Cp_outlet_sleeve = 901.9, k_outlet_sleeve = 151.3, sigma_outlet_sleeve = 3.9847E7, rho_outlet_sleeve = 2895.3, Cp_inlet_sleeve = 897, k_inlet_sleeve = 157.2, sigma_inlet_sleeve = 4.0656E7, rho_inlet_sleeve = 2621.8) (degC), Point: 138Temperature (Cp_Al = 916.9, k_Al = 164.3, sigma_Al = 3.7193E7, rho_Al = 2440.4, Cp_inlet = 812.4, k_inlet = 151.4, sigma_inlet = 4.058E7, rho_inlet = 2671.7, Cp_outlet = 825, k_outlet = 152.2, sigma_outlet = 4.036E7, rho_outlet = 2625.1, Cp_outlet_sleeve = 901.9, k_outlet_sleeve = 151.3, sigma_outlet_sleeve = 3.9847E7, rho_outlet_sleeve = 2895.3, Cp_inlet_sleeve = 897, k_inlet_sleeve = 157.2, sigma_inlet_sleeve = 4.0656E7, rho_inlet_sleeve = 2621.8) (degC), Point: 151Temperature (Cp_Al = 916.9, k_Al = 164.3, sigma_Al = 3.7193E7, rho_Al = 2440.4, Cp_inlet = 812.4, k_inlet = 151.4, sigma_inlet = 4.058E7, rho_inlet = 2671.7, Cp_outlet = 825, k_outlet = 152.2, sigma_outlet = 4.036E7, rho_outlet = 2625.1, Cp_outlet_sleeve = 901.9, k_outlet_sleeve = 151.3, sigma_outlet_sleeve = 3.9847E7, rho_outlet_sleeve = 2895.3, Cp_inlet_sleeve = 897, k_inlet_sleeve = 157.2, sigma_inlet_sleeve = 4.0656E7, rho_inlet_sleeve = 2621.8) (degC), Point: 154Temperature (Cp_Al = 916.9, k_Al = 164.3, sigma_Al = 3.7193E7, rho_Al = 2440.4, Cp_inlet = 812.4, k_inlet = 151.4, sigma_inlet = 4.058E7, rho_inlet = 2671.7, Cp_outlet = 825, k_outlet = 152.2, sigma_outlet = 4.036E7, rho_outlet = 2625.1, Cp_outlet_sleeve = 901.9, k_outlet_sleeve = 151.3, sigma_outlet_sleeve = 3.9847E7, rho_outlet_sleeve = 2895.3, Cp_inlet_sleeve = 897, k_inlet_sleeve = 157.2, sigma_inlet_sleeve = 4.0656E7, rho_inlet_sleeve = 2621.8) (degC), Point: 159Temperature (Cp_Al = 916.9, k_Al = 164.3, sigma_Al = 3.7193E7, rho_Al = 2440.4, Cp_inlet = 812.4, k_inlet = 151.4, sigma_inlet = 4.058E7, rho_inlet = 2671.7, Cp_outlet = 825, k_outlet = 152.2, sigma_outlet = 4.036E7, rho_outlet = 2625.1, Cp_outlet_sleeve = 901.9, k_outlet_sleeve = 151.3, sigma_outlet_sleeve = 3.9847E7, rho_outlet_sleeve = 2895.3, Cp_inlet_sleeve = 897, k_inlet_sleeve = 157.2, sigma_inlet_sleeve = 4.0656E7, rho_inlet_sleeve = 2621.8) (degC), Point: 163Temperature (Cp_Al = 916.9, k_Al = 164.3, sigma_Al = 3.7193E7, rho_Al = 2440.4, Cp_inlet = 812.4, k_inlet = 151.4, sigma_inlet = 4.058E7, rho_inlet = 2671.7, Cp_outlet = 825, k_outlet = 152.2, sigma_outlet = 4.036E7, rho_outlet = 2625.1, Cp_outlet_sleeve = 901.9, k_outlet_sleeve = 151.3, sigma_outlet_sleeve = 3.9847E7, rho_outlet_sleeve = 2895.3, Cp_inlet_sleeve = 897, k_inlet_sleeve = 157.2, sigma_inlet_sleeve = 4.0656E7, rho_inlet_sleeve = 2621.8) (degC), Point: 167Temperature (Cp_Al = 916.9, k_Al = 164.3, sigma_Al = 3.7193E7, rho_Al = 2440.4, Cp_inlet = 812.4, k_inlet = 151.4, sigma_inlet = 4.058E7, rho_inlet = 2671.7, Cp_outlet = 825, k_outlet = 152.2, sigma_outlet = 4.036E7, rho_outlet = 2625.1, Cp_outlet_sleeve = 901.9, k_outlet_sleeve = 151.3, sigma_outlet_sleeve = 3.9847E7, rho_outlet_sleeve = 2895.3, Cp_inlet_sleeve = 897, k_inlet_sleeve = 157.2, sigma_inlet_sleeve = 4.0656E7, rho_inlet_sleeve = 2621.8) (degC), Point: 168Temperature (Cp_Al = 916.9, k_Al = 164.3, sigma_Al = 3.7193E7, rho_Al = 2440.4, Cp_inlet = 812.4, k_inlet = 151.4, sigma_inlet = 4.058E7, rho_inlet = 2671.7, Cp_outlet = 825, k_outlet = 152.2, sigma_outlet = 4.036E7, rho_outlet = 2625.1, Cp_outlet_sleeve = 901.9, k_outlet_sleeve = 151.3, sigma_outlet_sleeve = 3.9847E7, rho_outlet_sleeve = 2895.3, Cp_inlet_sleeve = 897, k_inlet_sleeve = 157.2, sigma_inlet_sleeve = 4.0656E7, rho_inlet_sleeve = 2621.8) (degC), Point: 172Temperature (Cp_Al = 916.9, k_Al = 164.3, sigma_Al = 3.7193E7, rho_Al = 2440.4, Cp_inlet = 812.4, k_inlet = 151.4, sigma_inlet = 4.058E7, rho_inlet = 2671.7, Cp_outlet = 825, k_outlet = 152.2, sigma_outlet = 4.036E7, rho_outlet = 2625.1, Cp_outlet_sleeve = 901.9, k_outlet_sleeve = 151.3, sigma_outlet_sleeve = 3.9847E7, rho_outlet_sleeve = 2895.3, Cp_inlet_sleeve = 897, k_inlet_sleeve = 157.2, sigma_inlet_sleeve = 4.0656E7, rho_inlet_sleeve = 2621.8) (degC), Point: 181Temperature (Cp_Al = 916.9, k_Al = 164.3, sigma_Al = 3.7193E7, rho_Al = 2440.4, Cp_inlet = 812.4, k_inlet = 151.4, sigma_inlet = 4.058E7, rho_inlet = 2671.7, Cp_outlet = 825, k_outlet = 152.2, sigma_outlet = 4.036E7, rho_outlet = 2625.1, Cp_outlet_sleeve = 901.9, k_outlet_sleeve = 151.3, sigma_outlet_sleeve = 3.9847E7, rho_outlet_sleeve = 2895.3, Cp_inlet_sleeve = 897, k_inlet_sleeve = 157.2, sigma_inlet_sleeve = 4.0656E7, rho_inlet_sleeve = 2621.8) (degC), Point: 201Temperature (Cp_Al = 916.9, k_Al = 164.3, sigma_Al = 3.7193E7, rho_Al = 2440.4, Cp_inlet = 812.4, k_inlet = 151.4, sigma_inlet = 4.058E7, rho_inlet = 2671.7, Cp_outlet = 825, k_outlet = 152.2, sigma_outlet = 4.036E7, rho_outlet = 2625.1, Cp_outlet_sleeve = 901.9, k_outlet_sleeve = 151.3, sigma_outlet_sleeve = 3.9847E7, rho_outlet_sleeve = 2895.3, Cp_inlet_sleeve = 897, k_inlet_sleeve = 157.2, sigma_inlet_sleeve = 4.0656E7, rho_inlet_sleeve = 2621.8) (degC), Point: 210Temperature (Cp_Al = 916.9, k_Al = 164.3, sigma_Al = 3.7193E7, rho_Al = 2440.4, Cp_inlet = 812.4, k_inlet = 151.4, sigma_inlet = 4.058E7, rho_inlet = 2671.7, Cp_outlet = 825, k_outlet = 152.2, sigma_outlet = 4.036E7, rho_outlet = 2625.1, Cp_outlet_sleeve = 901.9, k_outlet_sleeve = 151.3, sigma_outlet_sleeve = 3.9847E7, rho_outlet_sleeve = 2895.3, Cp_inlet_sleeve = 897, k_inlet_sleeve = 157.2, sigma_inlet_sleeve = 4.0656E7, rho_inlet_sleeve = 2621.8) (degC), Point: 213Temperature (Cp_Al = 916.9, k_Al = 164.3, sigma_Al = 3.7193E7, rho_Al = 2440.4, Cp_inlet = 812.4, k_inlet = 151.4, sigma_inlet = 4.058E7, rho_inlet = 2671.7, Cp_outlet = 825, k_outlet = 152.2, sigma_outlet = 4.036E7, rho_outlet = 2625.1, Cp_outlet_sleeve = 901.9, k_outlet_sleeve = 151.3, sigma_outlet_sleeve = 3.9847E7, rho_outlet_sleeve = 2895.3, Cp_inlet_sleeve = 897, k_inlet_sleeve = 157.2, sigma_inlet_sleeve = 4.0656E7, rho_inlet_sleeve = 2621.8) (degC), Point: 215Temperature (Cp_Al = 916.9, k_Al = 164.3, sigma_Al = 3.7193E7, rho_Al = 2440.4, Cp_inlet = 812.4, k_inlet = 151.4, sigma_inlet = 4.058E7, rho_inlet = 2671.7, Cp_outlet = 825, k_outlet = 152.2, sigma_outlet = 4.036E7, rho_outlet = 2625.1, Cp_outlet_sleeve = 901.9, k_outlet_sleeve = 151.3, sigma_outlet_sleeve = 3.9847E7, rho_outlet_sleeve = 2895.3, Cp_inlet_sleeve = 897, k_inlet_sleeve = 157.2, sigma_inlet_sleeve = 4.0656E7, rho_inlet_sleeve = 2621.8) (degC), Point: 229Temperature (Cp_Al = 916.9, k_Al = 164.3, sigma_Al = 3.7193E7, rho_Al = 2440.4, Cp_inlet = 812.4, k_inlet = 151.4, sigma_inlet = 4.058E7, rho_inlet = 2671.7, Cp_outlet = 825, k_outlet = 152.2, sigma_outlet = 4.036E7, rho_outlet = 2625.1, Cp_outlet_sleeve = 901.9, k_outlet_sleeve = 151.3, sigma_outlet_sleeve = 3.9847E7, rho_outlet_sleeve = 2895.3, Cp_inlet_sleeve = 897, k_inlet_sleeve = 157.2, sigma_inlet_sleeve = 4.0656E7, rho_inlet_sleeve = 2621.8) (degC), Point: 232Temperature (Cp_Al = 916.9, k_Al = 164.3, sigma_Al = 3.7193E7, rho_Al = 2440.4, Cp_inlet = 812.4, k_inlet = 151.4, sigma_inlet = 4.058E7, rho_inlet = 2671.7, Cp_outlet = 825, k_outlet = 152.2, sigma_outlet = 4.036E7, rho_outlet = 2625.1, Cp_outlet_sleeve = 901.9, k_outlet_sleeve = 151.3, sigma_outlet_sleeve = 3.9847E7, rho_outlet_sleeve = 2895.3, Cp_inlet_sleeve = 897, k_inlet_sleeve = 157.2, sigma_inlet_sleeve = 4.0656E7, rho_inlet_sleeve = 2621.8) (degC), Point: 239Temperature (Cp_Al = 916.9, k_Al = 164.3, sigma_Al = 3.7193E7, rho_Al = 2440.4, Cp_inlet = 812.4, k_inlet = 151.4, sigma_inlet = 4.058E7, rho_inlet = 2671.7, Cp_outlet = 825, k_outlet = 152.2, sigma_outlet = 4.036E7, rho_outlet = 2625.1, Cp_outlet_sleeve = 901.9, k_outlet_sleeve = 151.3, sigma_outlet_sleeve = 3.9847E7, rho_outlet_sleeve = 2895.3, Cp_inlet_sleeve = 897, k_inlet_sleeve = 157.2, sigma_inlet_sleeve = 4.0656E7, rho_inlet_sleeve = 2621.8) (degC), Point: 252Temperature (Cp_Al = 916.9, k_Al = 164.3, sigma_Al = 3.7193E7, rho_Al = 2440.4, Cp_inlet = 812.4, k_inlet = 151.4, sigma_inlet = 4.058E7, rho_inlet = 2671.7, Cp_outlet = 825, k_outlet = 152.2, sigma_outlet = 4.036E7, rho_outlet = 2625.1, Cp_outlet_sleeve = 901.9, k_outlet_sleeve = 151.3, sigma_outlet_sleeve = 3.9847E7, rho_outlet_sleeve = 2895.3, Cp_inlet_sleeve = 897, k_inlet_sleeve = 157.2, sigma_inlet_sleeve = 4.0656E7, rho_inlet_sleeve = 2621.8) (degC), Point: 261Temperature (Cp_Al = 916.9, k_Al = 164.3, sigma_Al = 3.7193E7, rho_Al = 2440.4, Cp_inlet = 812.4, k_inlet = 151.4, sigma_inlet = 4.058E7, rho_inlet = 2671.7, Cp_outlet = 825, k_outlet = 152.2, sigma_outlet = 4.036E7, rho_outlet = 2625.1, Cp_outlet_sleeve = 901.9, k_outlet_sleeve = 151.3, sigma_outlet_sleeve = 3.9847E7, rho_outlet_sleeve = 2895.3, Cp_inlet_sleeve = 897, k_inlet_sleeve = 157.2, sigma_inlet_sleeve = 4.0656E7, rho_inlet_sleeve = 2621.8) (degC), Point: 270Temperature (Cp_Al = 916.9, k_Al = 164.3, sigma_Al = 3.7193E7, rho_Al = 2440.4, Cp_inlet = 812.4, k_inlet = 151.4, sigma_inlet = 4.058E7, rho_inlet = 2671.7, Cp_outlet = 825, k_outlet = 152.2, sigma_outlet = 4.036E7, rho_outlet = 2625.1, Cp_outlet_sleeve = 901.9, k_outlet_sleeve = 151.3, sigma_outlet_sleeve = 3.9847E7, rho_outlet_sleeve = 2895.3, Cp_inlet_sleeve = 897, k_inlet_sleeve = 157.2, sigma_inlet_sleeve = 4.0656E7, rho_inlet_sleeve = 2621.8) (degC), Point: 273Temperature (Cp_Al = 916.9, k_Al = 164.3, sigma_Al = 3.7193E7, rho_Al = 2440.4, Cp_inlet = 812.4, k_inlet = 151.4, sigma_inlet = 4.058E7, rho_inlet = 2671.7, Cp_outlet = 825, k_outlet = 152.2, sigma_outlet = 4.036E7, rho_outlet = 2625.1, Cp_outlet_sleeve = 901.9, k_outlet_sleeve = 151.3, sigma_outlet_sleeve = 3.9847E7, rho_outlet_sleeve = 2895.3, Cp_inlet_sleeve = 897, k_inlet_sleeve = 157.2, sigma_inlet_sleeve = 4.0656E7, rho_inlet_sleeve = 2621.8) (degC), Point: 275
0                        21.557658540282205       21.010001084846806       21.12964368302096        21.008516409456604       21.0139245850242         21.10702222268128        21.008564597110478       21.026077495487755       21.001461583928403       21.024265621769416       21.001214187461585       21.000652287996672       21.009449725628087       21.000111148034534       21.007782891331715       21.018110212655188       21.000051926562833       21.011326185116673       21.000723434246822       21.000296029248886       21.001742829978127       21.00014887025071        21.000228598825345       21.008582485252077       21.11741676528112        21.01336813979026        21.55492271513765        21.00838969579644        21.142273963716264       21.013117157734825       21.6205823904682
3                        295.4356278871278        258.30089399770463       268.48347328590705       264.23646223559047       262.5656768160201        274.84031180460124       273.0479464563015        261.73642774464145       256.9730346681537        267.4901432070351        269.37416718077077       261.0713321252248        258.5630228993831        246.24710090037695       251.1017080022267        225.38028770312292       220.61690685309645       230.70592773303895       232.52351147784913       226.16932148353908       224.89561015705937       217.11919286778527       220.0233434467234        275.08983638338134       277.31484472418674       264.15548583299255       297.52132353612126       266.26605251668866       270.7856714929168        258.1208230427037        300.4660147492799
6                        419.57670938069623       380.9578710524737        394.32481839972365       390.6052448932012        383.2633279297668        400.6229612690537        399.92000640173364       384.32518667383204       377.52389028739765       393.17450111602136       396.152377996009         387.83198368287105       384.23338561430717       366.77332727787245       373.65737569588964       348.4934941321802        342.1821421060188        355.60926208154103       357.98139112475224       351.3929777941013        349.6139185934421        338.6430033019627        343.04740602309687       401.7675220820944        402.87676042103305       384.5333801616954        419.9536156112349        390.4178623521535        394.3957288102722        378.32226824150916       422.25579260620225
9                        494.9450750284028        455.39102768392695       471.2419324952871        468.15318982747453       449.71391712807815       470.3900069933255        470.6173566038766        451.8133382977187        443.8863016795557        462.8877205242611        466.79904506692503       458.47433626798033       453.9434748023814        433.1299154517957        441.1297424664706        423.0369126364252        415.74620556352295       431.7792979402632        434.8092396353212        428.33997579410243       425.93421651839583       412.45325691281096       417.80558727115385       472.3688229125453        472.52475786451134       450.8003964531589        487.35399482484115       466.61866959539043       469.9416949452607        451.20840810470145       496.15015595073464
12                       546.4738370202924        506.2762080297846        524.0383832847667        521.5092527307506        493.1546479565649        516.0495591492015        516.9662168771195        495.8888715491307        487.2708263844945        508.51426266296187       513.1171122299934        504.7939838352189        499.57185263685005       476.51473872782776       485.1981052610498        474.0696610226802        466.10516987064614       484.1351464664507        487.7453731584111        481.3721931723053        478.40112425367727       462.97610255502263       468.98238329050866       518.6649017141077        518.1140845994828        494.1279667369664        531.3768192439752        519.2172601710355        521.9535479112359        501.17190598675734       546.8085501337437
15                       585.6993741454878        545.0233221361091        564.3018584691994        562.2481318659973        525.9379167235135        550.4302881105054        551.8672881239274        529.1087497792149        520.0158063567548        542.8730204316197        547.9978207700236        539.6787176825511        533.9345818510665        509.2625136622993        518.4152211238251        512.9766538952167        504.5126911839051        524.1201186429311        528.2214901457282        521.9420897919781        518.4859197918587        501.5107081197475        508.00428547739057       553.5347651179978        552.450313722302         526.8366780872394        564.5630359647012        559.5158718304546        561.7506497153587        539.3438185302069        585.4966150119695
18                       616.9053365508978        575.8632182510274        596.3712689351224        594.7242722817929        552.0217247234777        577.7015345845622        579.5421727624641        555.5035487119993        546.0736517763432        570.1298357737334        575.6594225914303        567.3450425633059        561.195876696807         535.3237934328508        544.8092274468231        543.9769573614296        535.1321318165467        556.0134009813254        560.5337458903332        554.3443377045483        550.4701090959787        532.2330587918951        539.1001499803862        581.1920950068712        579.6936889609633        552.8714159905747        590.9362427781139        591.7492525983778        593.5531633154578        569.8296172019727        616.3765341102217
21                       643.3057598551227        601.9698130456464        623.5054948191625        622.2101251125372        574.2890706854298        600.9043284514511        603.0723324631157        578.0090257590584        568.3228831828081        593.322916198411         599.1806918821004        590.8709345155992        584.3932546890737        557.5763241203871        567.3146493491529        570.238850384503         561.0894508457085        583.0316038577134        587.9133308521042        581.8068589137279        577.5697228963821        558.2759467059641        565.4429655653729        604.7125901338452        602.8785414779966        575.1053860189425        613.4272926118646        619.1025109505365        620.5332826507539        595.7114273085971        642.5735438512495
24                       666.6792177837498        625.0991735375071        647.5116314537902        646.5224946839207        594.2549692645688        621.6412273622632        624.0842976539062        598.1677706868132        588.2757958253866        614.0531298986394        620.1865650118109        611.8810936482913        605.1274072392979        577.5322299974282        587.4736192439645        593.5152947922213        584.1137623065782        606.9583168335844        612.1541764851983        606.1220936891605        601.5682880123484        581.3724614348318        588.7884704258519        625.7196014412557        623.6036583030276        595.0479519687032        633.5760831038209        643.3443702075889        644.4501745007944        618.6938689566942        665.8166622916815
27                       688.0191690828905        646.2321660573756        669.4009281414175        668.6792141108812        612.736846234184         640.7773563338603        643.4568188801222        616.8115374914375        606.7481182311293        633.1845579977455        639.5548169188346        631.2532375642471        624.2623887552002        596.0072321724947        606.1177157799591        614.7847824133293        605.1701219204226        628.7911823264934        634.260945013351         628.2946965388461        623.464163343615         602.4904784017154        610.1173330695889        645.0900106010287        642.7319275016574        613.5131114378244        652.2127940804768        665.4658482169166        666.2881139715238        639.7281302085064        687.0709539548038
