% Model:              brazing.mph
% Version:            COMSOL 5.3.0.223
% Date:               Oct 23 2018, 09:55
% Table:              Table 3 - 
% Time (s)               Temperature (Cp_Al = 950.3, k_Al = 167.1, sigma_Al = 3.6806E7, rho_Al = 2689.7, Cp_inlet = 955, k_inlet = 163.1, sigma_inlet = 3.551E7, rho_inlet = 2783.9, Cp_outlet = 811, k_outlet = 157, sigma_outlet = 3.698E7, rho_outlet = 2870.7, Cp_outlet_sleeve = 849.7, k_outlet_sleeve = 148.2, sigma_outlet_sleeve = 3.709E7, rho_outlet_sleeve = 2965.3, Cp_inlet_sleeve = 957.5, k_inlet_sleeve = 146.7, sigma_inlet_sleeve = 3.8533E7, rho_inlet_sleeve = 2550.4) (degC), Point: 55Temperature (Cp_Al = 950.3, k_Al = 167.1, sigma_Al = 3.6806E7, rho_Al = 2689.7, Cp_inlet = 955, k_inlet = 163.1, sigma_inlet = 3.551E7, rho_inlet = 2783.9, Cp_outlet = 811, k_outlet = 157, sigma_outlet = 3.698E7, rho_outlet = 2870.7, Cp_outlet_sleeve = 849.7, k_outlet_sleeve = 148.2, sigma_outlet_sleeve = 3.709E7, rho_outlet_sleeve = 2965.3, Cp_inlet_sleeve = 957.5, k_inlet_sleeve = 146.7, sigma_inlet_sleeve = 3.8533E7, rho_inlet_sleeve = 2550.4) (degC), Point: 56Temperature (Cp_Al = 950.3, k_Al = 167.1, sigma_Al = 3.6806E7, rho_Al = 2689.7, Cp_inlet = 955, k_inlet = 163.1, sigma_inlet = 3.551E7, rho_inlet = 2783.9, Cp_outlet = 811, k_outlet = 157, sigma_outlet = 3.698E7, rho_outlet = 2870.7, Cp_outlet_sleeve = 849.7, k_outlet_sleeve = 148.2, sigma_outlet_sleeve = 3.709E7, rho_outlet_sleeve = 2965.3, Cp_inlet_sleeve = 957.5, k_inlet_sleeve = 146.7, sigma_inlet_sleeve = 3.8533E7, rho_inlet_sleeve = 2550.4) (degC), Point: 60Temperature (Cp_Al = 950.3, k_Al = 167.1, sigma_Al = 3.6806E7, rho_Al = 2689.7, Cp_inlet = 955, k_inlet = 163.1, sigma_inlet = 3.551E7, rho_inlet = 2783.9, Cp_outlet = 811, k_outlet = 157, sigma_outlet = 3.698E7, rho_outlet = 2870.7, Cp_outlet_sleeve = 849.7, k_outlet_sleeve = 148.2, sigma_outlet_sleeve = 3.709E7, rho_outlet_sleeve = 2965.3, Cp_inlet_sleeve = 957.5, k_inlet_sleeve = 146.7, sigma_inlet_sleeve = 3.8533E7, rho_inlet_sleeve = 2550.4) (degC), Point: 69Temperature (Cp_Al = 950.3, k_Al = 167.1, sigma_Al = 3.6806E7, rho_Al = 2689.7, Cp_inlet = 955, k_inlet = 163.1, sigma_inlet = 3.551E7, rho_inlet = 2783.9, Cp_outlet = 811, k_outlet = 157, sigma_outlet = 3.698E7, rho_outlet = 2870.7, Cp_outlet_sleeve = 849.7, k_outlet_sleeve = 148.2, sigma_outlet_sleeve = 3.709E7, rho_outlet_sleeve = 2965.3, Cp_inlet_sleeve = 957.5, k_inlet_sleeve = 146.7, sigma_inlet_sleeve = 3.8533E7, rho_inlet_sleeve = 2550.4) (degC), Point: 90Temperature (Cp_Al = 950.3, k_Al = 167.1, sigma_Al = 3.6806E7, rho_Al = 2689.7, Cp_inlet = 955, k_inlet = 163.1, sigma_inlet = 3.551E7, rho_inlet = 2783.9, Cp_outlet = 811, k_outlet = 157, sigma_outlet = 3.698E7, rho_outlet = 2870.7, Cp_outlet_sleeve = 849.7, k_outlet_sleeve = 148.2, sigma_outlet_sleeve = 3.709E7, rho_outlet_sleeve = 2965.3, Cp_inlet_sleeve = 957.5, k_inlet_sleeve = 146.7, sigma_inlet_sleeve = 3.8533E7, rho_inlet_sleeve = 2550.4) (degC), Point: 98Temperature (Cp_Al = 950.3, k_Al = 167.1, sigma_Al = 3.6806E7, rho_Al = 2689.7, Cp_inlet = 955, k_inlet = 163.1, sigma_inlet = 3.551E7, rho_inlet = 2783.9, Cp_outlet = 811, k_outlet = 157, sigma_outlet = 3.698E7, rho_outlet = 2870.7, Cp_outlet_sleeve = 849.7, k_outlet_sleeve = 148.2, sigma_outlet_sleeve = 3.709E7, rho_outlet_sleeve = 2965.3, Cp_inlet_sleeve = 957.5, k_inlet_sleeve = 146.7, sigma_inlet_sleeve = 3.8533E7, rho_inlet_sleeve = 2550.4) (degC), Point: 102Temperature (Cp_Al = 950.3, k_Al = 167.1, sigma_Al = 3.6806E7, rho_Al = 2689.7, Cp_inlet = 955, k_inlet = 163.1, sigma_inlet = 3.551E7, rho_inlet = 2783.9, Cp_outlet = 811, k_outlet = 157, sigma_outlet = 3.698E7, rho_outlet = 2870.7, Cp_outlet_sleeve = 849.7, k_outlet_sleeve = 148.2, sigma_outlet_sleeve = 3.709E7, rho_outlet_sleeve = 2965.3, Cp_inlet_sleeve = 957.5, k_inlet_sleeve = 146.7, sigma_inlet_sleeve = 3.8533E7, rho_inlet_sleeve = 2550.4) (degC), Point: 127Temperature (Cp_Al = 950.3, k_Al = 167.1, sigma_Al = 3.6806E7, rho_Al = 2689.7, Cp_inlet = 955, k_inlet = 163.1, sigma_inlet = 3.551E7, rho_inlet = 2783.9, Cp_outlet = 811, k_outlet = 157, sigma_outlet = 3.698E7, rho_outlet = 2870.7, Cp_outlet_sleeve = 849.7, k_outlet_sleeve = 148.2, sigma_outlet_sleeve = 3.709E7, rho_outlet_sleeve = 2965.3, Cp_inlet_sleeve = 957.5, k_inlet_sleeve = 146.7, sigma_inlet_sleeve = 3.8533E7, rho_inlet_sleeve = 2550.4) (degC), Point: 128Temperature (Cp_Al = 950.3, k_Al = 167.1, sigma_Al = 3.6806E7, rho_Al = 2689.7, Cp_inlet = 955, k_inlet = 163.1, sigma_inlet = 3.551E7, rho_inlet = 2783.9, Cp_outlet = 811, k_outlet = 157, sigma_outlet = 3.698E7, rho_outlet = 2870.7, Cp_outlet_sleeve = 849.7, k_outlet_sleeve = 148.2, sigma_outlet_sleeve = 3.709E7, rho_outlet_sleeve = 2965.3, Cp_inlet_sleeve = 957.5, k_inlet_sleeve = 146.7, sigma_inlet_sleeve = 3.8533E7, rho_inlet_sleeve = 2550.4) (degC), Point: 134Temperature (Cp_Al = 950.3, k_Al = 167.1, sigma_Al = 3.6806E7, rho_Al = 2689.7, Cp_inlet = 955, k_inlet = 163.1, sigma_inlet = 3.551E7, rho_inlet = 2783.9, Cp_outlet = 811, k_outlet = 157, sigma_outlet = 3.698E7, rho_outlet = 2870.7, Cp_outlet_sleeve = 849.7, k_outlet_sleeve = 148.2, sigma_outlet_sleeve = 3.709E7, rho_outlet_sleeve = 2965.3, Cp_inlet_sleeve = 957.5, k_inlet_sleeve = 146.7, sigma_inlet_sleeve = 3.8533E7, rho_inlet_sleeve = 2550.4) (degC), Point: 138Temperature (Cp_Al = 950.3, k_Al = 167.1, sigma_Al = 3.6806E7, rho_Al = 2689.7, Cp_inlet = 955, k_inlet = 163.1, sigma_inlet = 3.551E7, rho_inlet = 2783.9, Cp_outlet = 811, k_outlet = 157, sigma_outlet = 3.698E7, rho_outlet = 2870.7, Cp_outlet_sleeve = 849.7, k_outlet_sleeve = 148.2, sigma_outlet_sleeve = 3.709E7, rho_outlet_sleeve = 2965.3, Cp_inlet_sleeve = 957.5, k_inlet_sleeve = 146.7, sigma_inlet_sleeve = 3.8533E7, rho_inlet_sleeve = 2550.4) (degC), Point: 151Temperature (Cp_Al = 950.3, k_Al = 167.1, sigma_Al = 3.6806E7, rho_Al = 2689.7, Cp_inlet = 955, k_inlet = 163.1, sigma_inlet = 3.551E7, rho_inlet = 2783.9, Cp_outlet = 811, k_outlet = 157, sigma_outlet = 3.698E7, rho_outlet = 2870.7, Cp_outlet_sleeve = 849.7, k_outlet_sleeve = 148.2, sigma_outlet_sleeve = 3.709E7, rho_outlet_sleeve = 2965.3, Cp_inlet_sleeve = 957.5, k_inlet_sleeve = 146.7, sigma_inlet_sleeve = 3.8533E7, rho_inlet_sleeve = 2550.4) (degC), Point: 154Temperature (Cp_Al = 950.3, k_Al = 167.1, sigma_Al = 3.6806E7, rho_Al = 2689.7, Cp_inlet = 955, k_inlet = 163.1, sigma_inlet = 3.551E7, rho_inlet = 2783.9, Cp_outlet = 811, k_outlet = 157, sigma_outlet = 3.698E7, rho_outlet = 2870.7, Cp_outlet_sleeve = 849.7, k_outlet_sleeve = 148.2, sigma_outlet_sleeve = 3.709E7, rho_outlet_sleeve = 2965.3, Cp_inlet_sleeve = 957.5, k_inlet_sleeve = 146.7, sigma_inlet_sleeve = 3.8533E7, rho_inlet_sleeve = 2550.4) (degC), Point: 159Temperature (Cp_Al = 950.3, k_Al = 167.1, sigma_Al = 3.6806E7, rho_Al = 2689.7, Cp_inlet = 955, k_inlet = 163.1, sigma_inlet = 3.551E7, rho_inlet = 2783.9, Cp_outlet = 811, k_outlet = 157, sigma_outlet = 3.698E7, rho_outlet = 2870.7, Cp_outlet_sleeve = 849.7, k_outlet_sleeve = 148.2, sigma_outlet_sleeve = 3.709E7, rho_outlet_sleeve = 2965.3, Cp_inlet_sleeve = 957.5, k_inlet_sleeve = 146.7, sigma_inlet_sleeve = 3.8533E7, rho_inlet_sleeve = 2550.4) (degC), Point: 163Temperature (Cp_Al = 950.3, k_Al = 167.1, sigma_Al = 3.6806E7, rho_Al = 2689.7, Cp_inlet = 955, k_inlet = 163.1, sigma_inlet = 3.551E7, rho_inlet = 2783.9, Cp_outlet = 811, k_outlet = 157, sigma_outlet = 3.698E7, rho_outlet = 2870.7, Cp_outlet_sleeve = 849.7, k_outlet_sleeve = 148.2, sigma_outlet_sleeve = 3.709E7, rho_outlet_sleeve = 2965.3, Cp_inlet_sleeve = 957.5, k_inlet_sleeve = 146.7, sigma_inlet_sleeve = 3.8533E7, rho_inlet_sleeve = 2550.4) (degC), Point: 167Temperature (Cp_Al = 950.3, k_Al = 167.1, sigma_Al = 3.6806E7, rho_Al = 2689.7, Cp_inlet = 955, k_inlet = 163.1, sigma_inlet = 3.551E7, rho_inlet = 2783.9, Cp_outlet = 811, k_outlet = 157, sigma_outlet = 3.698E7, rho_outlet = 2870.7, Cp_outlet_sleeve = 849.7, k_outlet_sleeve = 148.2, sigma_outlet_sleeve = 3.709E7, rho_outlet_sleeve = 2965.3, Cp_inlet_sleeve = 957.5, k_inlet_sleeve = 146.7, sigma_inlet_sleeve = 3.8533E7, rho_inlet_sleeve = 2550.4) (degC), Point: 168Temperature (Cp_Al = 950.3, k_Al = 167.1, sigma_Al = 3.6806E7, rho_Al = 2689.7, Cp_inlet = 955, k_inlet = 163.1, sigma_inlet = 3.551E7, rho_inlet = 2783.9, Cp_outlet = 811, k_outlet = 157, sigma_outlet = 3.698E7, rho_outlet = 2870.7, Cp_outlet_sleeve = 849.7, k_outlet_sleeve = 148.2, sigma_outlet_sleeve = 3.709E7, rho_outlet_sleeve = 2965.3, Cp_inlet_sleeve = 957.5, k_inlet_sleeve = 146.7, sigma_inlet_sleeve = 3.8533E7, rho_inlet_sleeve = 2550.4) (degC), Point: 172Temperature (Cp_Al = 950.3, k_Al = 167.1, sigma_Al = 3.6806E7, rho_Al = 2689.7, Cp_inlet = 955, k_inlet = 163.1, sigma_inlet = 3.551E7, rho_inlet = 2783.9, Cp_outlet = 811, k_outlet = 157, sigma_outlet = 3.698E7, rho_outlet = 2870.7, Cp_outlet_sleeve = 849.7, k_outlet_sleeve = 148.2, sigma_outlet_sleeve = 3.709E7, rho_outlet_sleeve = 2965.3, Cp_inlet_sleeve = 957.5, k_inlet_sleeve = 146.7, sigma_inlet_sleeve = 3.8533E7, rho_inlet_sleeve = 2550.4) (degC), Point: 181Temperature (Cp_Al = 950.3, k_Al = 167.1, sigma_Al = 3.6806E7, rho_Al = 2689.7, Cp_inlet = 955, k_inlet = 163.1, sigma_inlet = 3.551E7, rho_inlet = 2783.9, Cp_outlet = 811, k_outlet = 157, sigma_outlet = 3.698E7, rho_outlet = 2870.7, Cp_outlet_sleeve = 849.7, k_outlet_sleeve = 148.2, sigma_outlet_sleeve = 3.709E7, rho_outlet_sleeve = 2965.3, Cp_inlet_sleeve = 957.5, k_inlet_sleeve = 146.7, sigma_inlet_sleeve = 3.8533E7, rho_inlet_sleeve = 2550.4) (degC), Point: 201Temperature (Cp_Al = 950.3, k_Al = 167.1, sigma_Al = 3.6806E7, rho_Al = 2689.7, Cp_inlet = 955, k_inlet = 163.1, sigma_inlet = 3.551E7, rho_inlet = 2783.9, Cp_outlet = 811, k_outlet = 157, sigma_outlet = 3.698E7, rho_outlet = 2870.7, Cp_outlet_sleeve = 849.7, k_outlet_sleeve = 148.2, sigma_outlet_sleeve = 3.709E7, rho_outlet_sleeve = 2965.3, Cp_inlet_sleeve = 957.5, k_inlet_sleeve = 146.7, sigma_inlet_sleeve = 3.8533E7, rho_inlet_sleeve = 2550.4) (degC), Point: 210Temperature (Cp_Al = 950.3, k_Al = 167.1, sigma_Al = 3.6806E7, rho_Al = 2689.7, Cp_inlet = 955, k_inlet = 163.1, sigma_inlet = 3.551E7, rho_inlet = 2783.9, Cp_outlet = 811, k_outlet = 157, sigma_outlet = 3.698E7, rho_outlet = 2870.7, Cp_outlet_sleeve = 849.7, k_outlet_sleeve = 148.2, sigma_outlet_sleeve = 3.709E7, rho_outlet_sleeve = 2965.3, Cp_inlet_sleeve = 957.5, k_inlet_sleeve = 146.7, sigma_inlet_sleeve = 3.8533E7, rho_inlet_sleeve = 2550.4) (degC), Point: 213Temperature (Cp_Al = 950.3, k_Al = 167.1, sigma_Al = 3.6806E7, rho_Al = 2689.7, Cp_inlet = 955, k_inlet = 163.1, sigma_inlet = 3.551E7, rho_inlet = 2783.9, Cp_outlet = 811, k_outlet = 157, sigma_outlet = 3.698E7, rho_outlet = 2870.7, Cp_outlet_sleeve = 849.7, k_outlet_sleeve = 148.2, sigma_outlet_sleeve = 3.709E7, rho_outlet_sleeve = 2965.3, Cp_inlet_sleeve = 957.5, k_inlet_sleeve = 146.7, sigma_inlet_sleeve = 3.8533E7, rho_inlet_sleeve = 2550.4) (degC), Point: 215Temperature (Cp_Al = 950.3, k_Al = 167.1, sigma_Al = 3.6806E7, rho_Al = 2689.7, Cp_inlet = 955, k_inlet = 163.1, sigma_inlet = 3.551E7, rho_inlet = 2783.9, Cp_outlet = 811, k_outlet = 157, sigma_outlet = 3.698E7, rho_outlet = 2870.7, Cp_outlet_sleeve = 849.7, k_outlet_sleeve = 148.2, sigma_outlet_sleeve = 3.709E7, rho_outlet_sleeve = 2965.3, Cp_inlet_sleeve = 957.5, k_inlet_sleeve = 146.7, sigma_inlet_sleeve = 3.8533E7, rho_inlet_sleeve = 2550.4) (degC), Point: 229Temperature (Cp_Al = 950.3, k_Al = 167.1, sigma_Al = 3.6806E7, rho_Al = 2689.7, Cp_inlet = 955, k_inlet = 163.1, sigma_inlet = 3.551E7, rho_inlet = 2783.9, Cp_outlet = 811, k_outlet = 157, sigma_outlet = 3.698E7, rho_outlet = 2870.7, Cp_outlet_sleeve = 849.7, k_outlet_sleeve = 148.2, sigma_outlet_sleeve = 3.709E7, rho_outlet_sleeve = 2965.3, Cp_inlet_sleeve = 957.5, k_inlet_sleeve = 146.7, sigma_inlet_sleeve = 3.8533E7, rho_inlet_sleeve = 2550.4) (degC), Point: 232Temperature (Cp_Al = 950.3, k_Al = 167.1, sigma_Al = 3.6806E7, rho_Al = 2689.7, Cp_inlet = 955, k_inlet = 163.1, sigma_inlet = 3.551E7, rho_inlet = 2783.9, Cp_outlet = 811, k_outlet = 157, sigma_outlet = 3.698E7, rho_outlet = 2870.7, Cp_outlet_sleeve = 849.7, k_outlet_sleeve = 148.2, sigma_outlet_sleeve = 3.709E7, rho_outlet_sleeve = 2965.3, Cp_inlet_sleeve = 957.5, k_inlet_sleeve = 146.7, sigma_inlet_sleeve = 3.8533E7, rho_inlet_sleeve = 2550.4) (degC), Point: 239Temperature (Cp_Al = 950.3, k_Al = 167.1, sigma_Al = 3.6806E7, rho_Al = 2689.7, Cp_inlet = 955, k_inlet = 163.1, sigma_inlet = 3.551E7, rho_inlet = 2783.9, Cp_outlet = 811, k_outlet = 157, sigma_outlet = 3.698E7, rho_outlet = 2870.7, Cp_outlet_sleeve = 849.7, k_outlet_sleeve = 148.2, sigma_outlet_sleeve = 3.709E7, rho_outlet_sleeve = 2965.3, Cp_inlet_sleeve = 957.5, k_inlet_sleeve = 146.7, sigma_inlet_sleeve = 3.8533E7, rho_inlet_sleeve = 2550.4) (degC), Point: 252Temperature (Cp_Al = 950.3, k_Al = 167.1, sigma_Al = 3.6806E7, rho_Al = 2689.7, Cp_inlet = 955, k_inlet = 163.1, sigma_inlet = 3.551E7, rho_inlet = 2783.9, Cp_outlet = 811, k_outlet = 157, sigma_outlet = 3.698E7, rho_outlet = 2870.7, Cp_outlet_sleeve = 849.7, k_outlet_sleeve = 148.2, sigma_outlet_sleeve = 3.709E7, rho_outlet_sleeve = 2965.3, Cp_inlet_sleeve = 957.5, k_inlet_sleeve = 146.7, sigma_inlet_sleeve = 3.8533E7, rho_inlet_sleeve = 2550.4) (degC), Point: 261Temperature (Cp_Al = 950.3, k_Al = 167.1, sigma_Al = 3.6806E7, rho_Al = 2689.7, Cp_inlet = 955, k_inlet = 163.1, sigma_inlet = 3.551E7, rho_inlet = 2783.9, Cp_outlet = 811, k_outlet = 157, sigma_outlet = 3.698E7, rho_outlet = 2870.7, Cp_outlet_sleeve = 849.7, k_outlet_sleeve = 148.2, sigma_outlet_sleeve = 3.709E7, rho_outlet_sleeve = 2965.3, Cp_inlet_sleeve = 957.5, k_inlet_sleeve = 146.7, sigma_inlet_sleeve = 3.8533E7, rho_inlet_sleeve = 2550.4) (degC), Point: 270Temperature (Cp_Al = 950.3, k_Al = 167.1, sigma_Al = 3.6806E7, rho_Al = 2689.7, Cp_inlet = 955, k_inlet = 163.1, sigma_inlet = 3.551E7, rho_inlet = 2783.9, Cp_outlet = 811, k_outlet = 157, sigma_outlet = 3.698E7, rho_outlet = 2870.7, Cp_outlet_sleeve = 849.7, k_outlet_sleeve = 148.2, sigma_outlet_sleeve = 3.709E7, rho_outlet_sleeve = 2965.3, Cp_inlet_sleeve = 957.5, k_inlet_sleeve = 146.7, sigma_inlet_sleeve = 3.8533E7, rho_inlet_sleeve = 2550.4) (degC), Point: 273Temperature (Cp_Al = 950.3, k_Al = 167.1, sigma_Al = 3.6806E7, rho_Al = 2689.7, Cp_inlet = 955, k_inlet = 163.1, sigma_inlet = 3.551E7, rho_inlet = 2783.9, Cp_outlet = 811, k_outlet = 157, sigma_outlet = 3.698E7, rho_outlet = 2870.7, Cp_outlet_sleeve = 849.7, k_outlet_sleeve = 148.2, sigma_outlet_sleeve = 3.709E7, rho_outlet_sleeve = 2965.3, Cp_inlet_sleeve = 957.5, k_inlet_sleeve = 146.7, sigma_inlet_sleeve = 3.8533E7, rho_inlet_sleeve = 2550.4) (degC), Point: 275
0                        21.56078824798925        21.01069272959461        21.131415712760372       21.00831273321154        21.013539042424895       21.108592489287332       21.007899586716064       21.024773970712374       21.0014233885488         21.024668903382235       21.001116763339326       21.00058794731865        21.009559703596267       21.000108523860717       21.00737037360119        21.018272367012173       21.00005212709044        21.011494941723015       21.000699505474927       21.00028317606956        21.001761223442145       21.00015488330905        21.000229577185223       21.00787630447894        21.119137843502585       21.01301490936845        21.526853896101045       21.00820746006184        21.144252918825885       21.01367049966126        21.624077961953674
3                        297.7275660421677        260.3277967765505        269.73207363809          265.1069266309048        252.21773123439834       262.61904727863725       260.06909250885406       250.8172807939402        246.357271282429         255.2688663081599        256.5249740955495        248.26359380453232       246.33257508255906       235.461368308585         240.0189058998809        226.82113504001506       222.09615764200322       231.69680256882418       233.29504330087428       226.88441766305317       225.8217986430393        218.56529622651135       221.38657254381536       262.1275678650936        265.1439566326178        253.90476783860493       288.8005307691624        267.23118735049695       272.1404583975027        260.2300338344951        302.9399980136277
6                        422.37710865472627       383.4424605275469        396.1797676484523        392.1117541557986        374.61361723349523       389.87499395985355       388.3077131808308        375.1203441080744        368.60944026486027       382.42782380588835       384.67087688833465       376.39738090059984       373.4840614652144        357.69983012979253       364.2987421518278        350.47263268012136       344.14910629009387       357.2352972152654        359.41725418222757       352.7742519643839        351.18055184352966       340.59456968295524       344.9622890797684        390.17775376111956       392.18954783473623       375.99815895389395       412.9596140100082        392.07771416918285       396.4206481047013        380.96949909931493       425.31367704822924
9                        497.7973041493559        457.888341474321         473.2375452554297        469.8352408937135        444.7820933619463        463.4807596002257        462.83922857171035       446.42498617578053       438.69139313639914       455.98058765917824       459.1523752975338        450.8736113909275        447.0332987270192        427.7760148383161        435.58690588667014       425.0726165205258        417.7311795300096        433.5484844239985        436.4220688664135        429.8924662826495        427.63940966695816       414.4207834289356        419.7743037409708        464.61294961284966       465.67784383934077       445.98655491943794       484.17767623691054       468.4509197760332        472.1074771139323        453.8759390417737        499.26611966578844
12                       549.1278503340418        508.5474883250197        525.8988792404909        523.0819930521441        491.1378892475559        512.244855915363         512.3238351244903        493.5115457333362        484.9924318208           504.7127918626661        508.6071570589356        500.3262743473391        495.76373973889986       474.07267661534684       482.6610878978272        475.90909943965664       467.86614233613295       485.7702859302955        489.2495262039238        482.7987098563293        479.9552939293146        464.70229947061307       470.73779002942194       514.0428644951305        514.3702857661362        492.227449818335         531.2081456934469        520.923644495063         523.9688442212929        503.5987364354936        549.7122239643985
15                       588.123545879601         547.0414468937054        565.9814336739507        563.659860021865         525.9435204267621        548.8267428321407        549.4628728192117        528.8328931501571        519.7600219984329        541.2730480206833        545.7261073923651        537.4466235973109        532.3253758534246        508.8394664720338        517.9756158450717        514.5842903774353        506.0182982519142        525.5723242700445        529.5625348682837        523.1910858039903        519.8427965559888        502.9662913493054        509.5130393582923        551.1486369971257        550.905595300367         526.955424823456         566.492437318869         561.0420706172974        563.5660411525198        541.496380992866         588.1506810136912
18                       619.0340952827596        577.5656390058855        597.7959263395971        595.8976548484874        553.2939063105412        577.5188568610388        578.5935900293757        556.5573575128104        547.0840194138628        569.9506394930453        574.8434442464329        566.5668275452823        561.0055908577918        536.1642020242211        545.6961842735232        545.2842743832786        536.3166418350024        557.2063129977264        561.6322368546364        555.3407545005185        551.5576005477794        533.3565243362758        540.2979131795405        580.2598250443508        579.5676102059399        554.2531733846768        594.1921973517116        593.0181224881105        595.0942085287578        571.6432908696942        618.7137390641562
21                       645.0265098180686        603.2461024069207        624.5584462190616        623.0270130896762        576.2041711754026        601.4905327731486        602.9225963846969        579.7549702825064        569.9754279613685        593.9122990355808        599.1632895808272        590.8900615627014        584.9702995395946        559.0570122728291        568.8914817885006        571.1319253101237        561.8409887633412        583.8474455551687        588.6502867038429        582.4358510038758        578.2741239886481        558.9596096086237        566.2199075053778        604.577469808335         603.5193195097439        577.12665326261          617.372769444759         619.9984628744985        621.6853737546512        597.0772430253096        644.482848380626
24                       667.8921173594536        625.8507137270211        648.0915224476938        646.8813120164606        596.3600380623267        622.5214766818651        624.2543360522029        600.1429366956659        590.1174521570492        614.9361704086963        620.488603451968         612.2188822544891        605.9973081551611        579.2007278978134        589.2780409334936        593.893887051897         584.3332729247832        607.2954998296212        612.427872178197         606.2850204797959        601.7910610673656        581.5204594170116        589.0474496223201        625.9028809931897        624.5367541364909        597.2561408198916        637.7486434565154        643.7687040318347        645.1146308091281        619.5156883255522        667.2006487731045
27                       688.643517455441         646.3788627324437        669.4269478846335        668.4994761075424        614.7190010027717        641.6249141782704        643.6174635333895        618.6966149620084        608.4660148875843        634.034519378609         639.8471353763193        631.5808434728386        625.0987188054681        597.5510773491212        607.8308451279985        614.568411394739         604.7777487063988        628.5691581518857        633.9911910408359        627.9134648390635        623.1268369380991        602.025149050883         609.7799897512892        645.2628562893525        643.6309238800186        615.5957694873955        656.2935290070482        665.3408418198014        666.3868058486114        639.9286664195514        687.8515903028147
