% Model:              brazing.mph
% Version:            COMSOL 5.3.0.223
% Date:               Oct 23 2018, 10:09
% Dimension:          1
% Nodes:              225
% Expressions:        1
% Description:        Line graph
% x                       Height
0                         632.0210505021927
2.02242572596226E-4       632.0125315625651
4.040113375593453E-4      631.9386071043773
6.054635867748898E-4      631.7992771276295
8.067573541103817E-4      631.5945416323215
0.0010080510467017985     631.3244006184534
0.001209503071861434      630.9888540860251
0.0014112714639836859     630.5879020350368
0.001613513515825394      630.1215444654882
0.001815803045808458      629.7122220102078
0.0020176184164428694     629.2548290226824
0.0022191170764546647     628.7493655029122
0.0024204572175778446     628.1958314508971
0.00262179740518867       627.5942268666371
0.002823296204553664      626.9445517501323
0.0030251118070788686     626.2468061013825
0.003227401660948015      625.5009899203878
0.0034297372965816655     624.7808326347525
0.003631598594156443      624.022054892274
0.0038331430353414214     623.2246566929522
0.004034528845142556      622.3886380367871
0.004235914622467191      621.5139989237788
0.004437458966299354      620.6007393539272
0.004639320101874085      619.6488593272323
0.004841655511239337      618.6583588436943
0.005043918276497792      617.7640047517423
0.005245706959792293      616.8563554210531
0.0054471789681153834     615.9354108516269
0.00564849245128538       615.0011710434635
0.005849805932728159      614.053635996563
0.006051277935873691      613.0928057109254
0.00625306661055245       612.1186801865507
0.006455329363777148      611.1312594234388
0.0066576887471433525     610.1758720894794
0.0068595736811967985     609.239152569273
0.007061141707903535      608.3211008628199
0.007262551112883539      607.4217169701196
0.007463960555734714      606.5410008911725
0.007665528695965537      605.6789526259785
0.00786741381892875       604.8355721745377
0.0080697734661485        604.0108595368497
0.008272395437950266      603.273481378343
0.008474540847339949      602.5581547361412
0.008676367906616744      601.8648796102444
0.008878035577337231      601.1936560006526
0.009079703197965442      600.5444839073657
0.009281530107084053      599.9173633303839
0.00948367526660416       599.312294269707
0.009686296889411194      598.7292767253351
0.009888748367913874      598.367344441535
0.010090724718905934      598.0433430612991
0.010292383720552634      597.7572725846273
0.010493883896490891      597.5091330115198
0.010695384145210549      597.2989243419764
0.010897043365029401      597.126646575997
0.011099020079070253      596.9922997135822
0.011301472064648224      596.8958837547311
0.011503924099142101      596.9089535444103
0.011705900863193036      596.9612222461667
0.011907560133099505      597.0526898600002
0.012109060430962503      597.183356385911
0.012310560654077738      597.3532218238989
0.012512219699917606      597.562286173964
0.012714196091111104      597.8105494361064
0.012916647604829811      598.0980116103259
0.013119269382981878      598.5461858556889
0.013321414683399362      599.0255609220136
0.013523241722808088      599.5361368092998
0.013724909467002238      600.0779135175477
0.013926577258472442      600.6508910467571
0.014128404439597363      601.2550693969282
0.014330549975836581      601.8904485680607
0.01453317208336263       602.5570285601551
0.014735531766219815      603.297943754208
0.014937416940401616      604.0505821598011
0.015138985143475461      604.8149437769343
0.015340394656791169      605.5910286056078
0.015541804135826716      606.3788366458215
0.015743372236141022      607.1783678975753
0.015945257239325793      607.9896223608694
0.01614761668334845       608.8126000357036
0.01634987940592303       609.7626242753447
0.016551668047823844      610.6984592566644
0.016753140015983766      611.6201049796628
0.0169544534601584        612.5275614443397
0.017155766903708087      613.4208286506952
0.017357238869994664      614.2999065987293
0.017559027508778132      615.1647952884421
0.01776129022699866       616.0154947198334
0.017963625484858744      616.8959366850108
0.018165486461237414      617.7508080122757
0.018367030641941378      618.5801087016279
0.018568416255992027      619.3838387530676
0.018769801906169285      620.1619981665947
0.018971346195167795      620.9145869422092
0.019173207351754082      621.641605079911
0.019375542861313405      622.3430525797003
0.019577832661189145      623.0712409612377
0.019779648217873542      623.7446012366303
0.019981146975907166      624.3631334058782
0.020182487123025287      624.9268374689814
0.020383827220813066      625.4357134259399
0.020585325830972126      625.8897612767536
0.020787141141585735      626.2889810214226
0.020989430597769934      626.6333726599469
0.021191672662378012      627.0989143507411
0.021393441061935803      627.4984616444084
0.02159489309031221       627.8320145409486
0.021796186783028852      628.099573040362
0.021997480548535182      628.3011371426484
0.022198932795108938      628.4367068478077
0.022400701557758636      628.5062821558402
0.02260294412950465       628.5098630667457
0.02280539620920995       628.5664285436847
0.023007373018156245      628.5546927487377
0.02320903233274668       628.4746556819048
0.023410532675187733      628.326317343186
0.023612032942881025      628.1096777325813
0.023813692033404853      627.8247368500905
0.024015668469493705      627.4714946957139
0.024218120028423832      627.0499512694514
0.024420742013481003      626.6580614234024
0.02462288751935683       626.21038374269
0.02482471476325633       625.7069182273141
0.02502638271145666       625.1476648772747
0.025228050706933344      624.5326236925717
0.025429878092549915      623.8617946732054
0.025632023834248962      623.1351778191754
0.025834646148682177      622.352773130482
0.026037006051731277      621.570764237186
0.026238891444565628      620.7465911859762
0.02644045986526205       619.8802539768524
0.026641869595683754      618.9717526098146
0.02684327929182417       618.021087084863
0.027044847609757647      617.0282574019974
0.02724673283158932       615.9932635612179
0.027449092495796006      614.9161055625245
0.02765135518998453       613.8764790061734
0.027853143803698084      612.8269447376779
0.028054615743803996      611.7675027570378
0.028255929159991804      610.6981530642533
0.028457242575555555      609.6188956593244
0.028658714513790734      608.529730542251
0.028860503124391312      607.4306577130329
0.029062765814231884      606.3216771716704
0.029265100752448706      605.2191946996642
0.02946696141141544       604.1424005184148
0.029668505276199596      603.0912946279225
0.029869890575077548      602.0658770281872
0.03007127591008127       601.0661477192087
0.030272819883157453      600.0921067009873
0.03047468072232762       599.1437539735228
0.030677015912237836      598.2210895368154
0.030879305594778746      597.3808885107198
0.03108112103494649       596.5772005684331
0.031282619677010744      595.8100257099554
0.03148395970843373       595.0793639352866
0.0316852996905265        594.3852152444265
0.031886798184716555      593.7275796373755
0.032088613378814135      593.1064571141331
0.03229090271766436       592.5218476746998
0.03249314477533616       592.1378185510036
0.03269491316800606       591.808113786303
0.03289636518952694       591.5327333805977
0.03309765887540427       591.3116773338882
0.033298952634071295      591.144945646174
0.033500404873789524      591.0325383174553
0.03370217362955133       590.9744553477321
0.03390441619436107       590.9706967370046
0.03410686840969767       591.0780020184307
0.03430884535332711       591.2401026474535
0.0345105048019665        591.4569986240729
0.034712005278138794      591.7286899482889
0.03491350567956333       592.0551766201016
0.03511516490413611       592.4364586395109
0.035317141474908095      592.8725360065167
0.03551959316946952       593.3634087211193
0.035722216260139425      594.0081963823162
0.03592436286389621       594.6948320675602
0.036126191200505704      595.4233157768513
0.03632786023882611       596.1936475101896
0.03652952932442421       597.0058272675751
0.036731357802754806      597.8598550490077
0.03693350464234149       598.7557308544874
0.03713612806239678       599.6934546840142
0.03733848789969145       600.6982436251411
0.037540373227224554      601.7229862991373
0.03774194158292153       602.7676827060034
0.03794335124849304       603.8323328457387
0.03814476087977932       604.9169367183437
0.03834632913270157       606.021494323818
0.03854821428921239       607.1460056621621
0.038750573887637245      608.2904707333756
0.03895283596123875       609.5112254117723
0.039154623958694366      610.7173880688769
0.039356095285438375      611.908958704689
0.03955740808971597       613.0859373192089
0.03975872089337115       614.2483239124367
0.03996019221824938       615.3961184843721
0.04016198021260023       616.5293210350154
0.04036424228186526       617.6479315643663
0.040566577948397485      618.7535389004703
0.040768439330593605      619.8232271373132
0.04096998391520435       620.856996274895
0.04117136993220262       621.8548463132156
0.04137275598532357       622.8167772522751
0.04157430067821714       623.7427890920736
0.04177616224060133       624.6328818326109
0.0419784981588055        625.4870554738872
0.04218078754816035       626.3308640614764
0.04238260269718259       627.1088814563275
0.04258410104946696       627.8211076584404
0.04278544079179545       628.467542667815
0.04298678048479618       629.0481864844514
0.043188278689213704      629.5630391083498
0.043390093592177985      630.0121005395098
0.04359238263785921       630.3953707779317
0.043794623705544454      630.8480067173025
0.04399639111513442       631.2293780927196
0.04419784215819482       631.5394849041828
0.04439913486792596       631.7783271516923
0.044600427650446826      631.945904835248
0.04480187891170468       632.04221795485
0.045003646684386715      632.0672665104983
0.04520588825921017       632.0210505021927
