% Model:              brazing.mph
% Version:            COMSOL 5.3.0.223
% Date:               Oct 23 2018, 10:01
% Dimension:          1
% Nodes:              225
% Expressions:        1
% Description:        Line graph
% x                       Height
0                         626.5181235013811
2.02242572596226E-4       626.509027272413
4.040113375593453E-4      626.4385039095021
6.054635867748898E-4      626.306553412648
8.067573541103817E-4      626.1131757818509
0.0010080510467017985     625.8583710171109
0.001209503071861434      625.5421391184278
0.0014112714639836859     625.1644800858019
0.001613513515825394      624.7253939192328
0.001815803045808458      624.3353813003456
0.0020176184164428694     623.9001646694861
0.0022191170764546647     623.4197440266545
0.0024204572175778446     622.8941193718506
0.00262179740518867       622.3232907050744
0.002823296204553664      621.7072580263263
0.0030251118070788686     621.0460213356058
0.003227401660948015      620.3395806329131
0.0034297372965816655     619.6556283329382
0.003631598594156443      618.9356130649682
0.0038331430353414214     618.1795348290026
0.004034528845142556      617.387393625042
0.004235914622467191      616.5591894530861
0.004437458966299354      615.694922313135
0.004639320101874085      614.7945922051886
0.004841655511239337      613.8581991292468
0.005043918276497792      613.0057916094667
0.005245706959792293      612.141318137116
0.0054471789681153834     611.2647787121944
0.00564849245128538       610.3761733347022
0.005849805932728159      609.4755020046395
0.006051277935873691      608.5627647220059
0.00625306661055245       607.6379614868019
0.006455329363777148      606.7010922990271
0.0066576887471433525     605.7937037239535
0.0068595736811967985     604.9040174949598
0.007061141707903535      604.032033612046
0.007262551112883539      603.177752075212
0.007463960555734714      602.3411728844578
0.007665528695965537      601.5222960397837
0.00786741381892875       600.7211215411892
0.0080697734661485        599.9376493886747
0.008272395437950266      599.2341405291652
0.008474540847339949      598.5523060855216
0.008676367906616744      597.8921460577441
0.008878035577337231      597.2536604458325
0.009079703197965442      596.6368492497868
0.009281530107084053      596.0417124696071
0.00948367526660416       595.4682501052934
0.009686296889411194      594.9164621568455
0.009888748367913874      594.5663286853713
0.010090724718905934      594.2527940303146
0.010292383720552634      593.9758581916753
0.010493883896490891      593.7355211694536
0.010695384145210549      593.5317829636493
0.010897043365029401      593.3646435742623
0.011099020079070253      593.2341030012931
0.011301472064648224      593.1401612447412
0.011503924099142101      593.147259163255
0.011705900863193036      593.1921082137483
0.011907560133099505      593.2747083962212
0.012109060430962503      593.3950597106735
0.012310560654077738      593.5531621571056
0.012512219699917606      593.7490157355171
0.012714196091111104      593.9826204459083
0.012916647604829811      594.253976288279
0.013119269382981878      594.6726285917402
0.013321414683399362      595.1212847853857
0.013523241722808088      595.5999448692154
0.013724909467002238      596.1086088432293
0.013926577258472442      596.6472767074273
0.014128404439597363      597.2159484618095
0.014330549975836581      597.8146241063761
0.01453317208336263       598.4433036411266
0.014735531766219815      599.140261459531
0.014937416940401616      599.8489932589572
0.015138985143475461      600.5694990394051
0.015340394656791169      601.3017788008746
0.015541804135826716      602.0458325433659
0.015743372236141022      602.8016602668789
0.015945257239325793      603.5692619714138
0.01614761668334845       604.3486376569703
0.01634987940592303       605.2419552701764
0.016551668047823844      606.1224147856133
0.016753140015983766      606.9900162032809
0.0169544534601584        607.8447595231795
0.017155766903708087      608.6866447453089
0.017357238869994664      609.5156718696691
0.017559027508778132      610.3318408962601
0.01776129022699866       611.1351518250818
0.017963625484858744      611.9660460267165
0.018165486461237414      612.7728251764534
0.018367030641941378      613.5554892742924
0.018568416255992027      614.3140383202336
0.018769801906169285      615.048472314277
0.018971346195167795      615.7587912564225
0.019173207351754082      616.4449951466703
0.019375542861313405      617.10708398502
0.019577832661189145      617.7919658911497
0.019779648217873542      618.4258364861956
0.019981146975907166      619.008695770158
0.020182487123025287      619.5405437430367
0.020383827220813066      620.0213804048317
0.020585325830972126      620.4512057555431
0.020787141141585735      620.8300197951708
0.020989430597769934      621.1578225237147
0.021191672662378012      621.5924464089691
0.021393441061935803      621.9653525413815
0.02159489309031221       622.2765409209521
0.021796186783028852      622.5260115476806
0.021997480548535182      622.7137644215671
0.022198932795108938      622.8397995426118
0.022400701557758636      622.9041169108147
0.02260294412950465       622.9067165261754
0.02280539620920995       622.9580290973228
0.023007373018156245      622.9454139997565
0.02320903233274668       622.8688712334766
0.023410532675187733      622.7284007984832
0.023612032942881025      622.5240026947763
0.023813692033404853      622.2556769223557
0.024015668469493705      621.9234234812217
0.024218120028423832      621.5272423713741
0.024420742013481003      621.154454796811
0.02462288751935683       620.7292983430102
0.02482471476325633       620.2517730099715
0.02502638271145666       619.7218787976951
0.025228050706933344      619.139615706181
0.025429878092549915      618.5049837354289
0.025632023834248962      617.8179828854392
0.025834646148682177      617.0786131562115
0.026037006051731277      616.3378100043608
0.026238891444565628      615.5575856011476
0.02644045986526205       614.737939946572
0.026641869595683754      613.8788730406342
0.02684327929182417       612.9803848833338
0.027044847609757647      612.0424754746713
0.02724673283158932       611.0651448146463
0.027449092495796006      610.0483929032588
0.02765135518998453       609.0614499249834
0.027853143803698084      608.0656779312222
0.028054615743803996      607.061076921975
0.028255929159991804      606.0476468972419
0.028457242575555555      605.0253878570228
0.028658714513790734      603.994299801318
0.028860503124391312      602.954382730127
0.029062765814231884      601.9056366434503
0.029265100752448706      600.8627020144879
0.02946696141141544       599.8442901496293
0.029668505276199596      598.8504010488742
0.029869890575077548      597.8810347122229
0.03007127591008127       596.9361911396753
0.030272819883157453      596.0158703312313
0.03047468072232762       595.1200722868911
0.030677015912237836      594.2487970066545
0.030879305594778746      593.4532559776783
0.03108112103494649       592.6931725399057
0.031282619677010744      591.9685466933369
0.03148395970843373       591.2793784379717
0.0316852996905265        590.6256677738103
0.031886798184716555      590.0074147008525
0.032088613378814135      589.4246192190984
0.03229090271766436       588.8772813285481
0.03249314477533616       588.513335453061
0.03269491316800606       588.2016151930987
0.03289636518952694       587.9421205486613
0.03309765887540427       587.7348515197484
0.033298952634071295      587.5798081063604
0.033500404873789524      587.476990308497
0.03370217362955133       587.4263981261585
0.03390441619436107       587.4280315593446
0.03410686840969767       587.5324694073777
0.03430884535332711       587.6894920573852
0.0345105048019665        587.8990995093671
0.034712005278138794      588.1612917633237
0.03491350567956333       588.4760688192547
0.03511516490413611       588.8434306771603
0.035317141474908095      589.2633773370403
0.03551959316946952       589.7359087988949
0.035722216260139425      590.3498904453421
0.03592436286389621       591.0039983713191
0.036126191200505704      591.6982325768255
0.03632786023882611       592.4325930618617
0.03652952932442421       593.2070798264275
0.036731357802754806      594.0216928705228
0.03693350464234149       594.8764321941477
0.03713612806239678       595.7712977973024
0.03733848789969145       596.7274788218567
0.037540373227224554      597.70300579409
0.03774194158292153       598.6978787140024
0.03794335124849304       599.7120975815936
0.03814476087977932       600.745662396864
0.03834632913270157       601.7985731598133
0.03854821428921239       602.8708298704414
0.038750573887637245      603.9624325287488
0.03895283596123875       605.1213505279295
0.039154623958694366      606.2667858680965
0.039356095285438375      607.3987385492493
0.03955740808971597       608.5172085713884
0.03975872089337115       609.6221959345136
0.03996019221824938       610.7137006386248
0.04016198021260023       611.7917226837222
0.04036424228186526       612.8562620698057
0.040566577948397485      613.9080329593579
0.040768439330593605      614.9256608543564
0.04096998391520435       615.9091457548012
0.04117136993220262       616.8584876606923
0.04137275598532357       617.7736865720298
0.04157430067821714       618.6547424888136
0.04177616224060133       619.5016554110435
0.0419784981588055        620.31442533872
0.04218078754816035       621.1143039284248
0.04238260269718259       621.8525345481552
0.04258410104946696       622.5291171979111
0.04278544079179545       623.1440518776926
0.04298678048479618       623.6973385874996
0.043188278689213704      624.1889773273323
0.043390093592177985      624.6189680971904
0.04359238263785921       624.987310897074
0.043794623705544454      625.4130541165141
0.04399639111513442       625.7718282948395
0.04419784215819482       626.06363343205
0.04439913486792596       626.2884695281457
0.044600427650446826      626.4463365831267
0.04480187891170468       626.5372345969929
0.045003646684386715      626.5611635697444
0.04520588825921017       626.5181235013811
