% Model:              brazing.mph
% Version:            COMSOL 5.3.0.223
% Date:               Oct 23 2018, 09:55
% Dimension:          1
% Nodes:              225
% Expressions:        1
% Description:        Line graph
% x                       Height
0                         614.0931487552797
2.1191841480136804E-4     614.0090324069331
4.2353438892247565E-4     613.8887087540023
6.349689892252786E-4      613.7321777964872
8.463435942227858E-4      613.5394395343881
0.001057779685752053      613.310493967705
0.001269398639759412      613.0453410964375
0.001481321517995422      612.743980920586
0.0017252358262731596     612.3420015968093
0.0019686866163640313     611.9112373735036
0.0022118589563155885     611.4516882506689
0.002454938550168189      610.9633542283051
0.0026981113144448556     610.4462353064126
0.0029415629522145732     609.9003314849908
0.0031854785295931678     609.3256427640403
0.0034450106912723537     608.6184334204545
0.0037039863009040125     607.881625710262
0.003962627412610827      607.1152196334625
0.0042211569424298        606.3192151900562
0.004479798094906585      605.4936123800433
0.004738773785972872      604.6384112034231
0.004998306069542035      603.7536116601963
0.005274868491808245      602.7201617703475
0.005550758931995686      601.6705309790773
0.0058262454501036105     600.6047192863855
0.006101597285810183      599.5227266922724
0.006377084073678616      598.4245531967381
0.006652975052596927      597.3101987997821
0.006929538280995558      596.179663501405
0.007206101510950518      595.0095096757473
0.007481992491406557      593.8554019336439
0.007757479280801014      592.7173402750949
0.00803283111802884       591.5953247001004
0.008308317637660222      590.4893552086606
0.008584208079380276      589.399431800775
0.008860770503195153      588.325554476444
0.009120302815147717      587.3176653982754
0.00937927853441616       586.3481583665628
0.009637919714987194      585.4170333813063
0.009896449272866283      584.524290442506
0.010155090412673047      583.6699295501621
0.010414066050518256      582.8539507042741
0.01067359824059789       582.0763539048423
0.010917512776055054      581.367466850543
0.011160965100129169      580.7062528593673
0.011404139717480647      580.092711931315
0.01164722176512739       579.5268440663864
0.011890396591516505      579.0086492645815
0.012133849333188814      578.5381275259001
0.012377764493855997      578.1152788503423
0.01258968694000722       577.7866229916625
0.012801305803204788      577.4960762465329
0.013012742322906452      577.2436386149534
0.013224118052332232      577.0293100969241
0.01343555464954572       576.8530906924451
0.013647173667633327      576.7149804015161
0.013859096345786744      576.6149792241374
0.014071014760598048      576.5675548701031
0.014282630734729056      576.5574148078938
0.01449406533504172       576.5845590375094
0.014705439940049088      576.64898755895
0.014916876031588231      576.750700372216
0.015128494985605482      576.8896974773066
0.015340417863851432      577.0659788742225
0.01558433217214941       577.284764383617
0.015827782962260412      577.5584664780453
0.016070955302232025      577.8870851575074
0.016314034896104664      578.2706204220033
0.0165572076604014        578.7090722715333
0.01680065929819124       579.2024407060967
0.01704457487559009       579.7507257256941
0.01730410703726679       580.3485064514807
0.017563082646895985      580.9839275420164
0.01782172375860034       581.656988997301
0.018080253288416847      582.3676908173347
0.01833889444089119       583.1160330021179
0.018597870131955005      583.9020155516496
0.018857402415521692      584.7256384659306
0.019133964837753384      585.6107801818249
0.019409855277906563      586.5131453990472
0.019685341795980367      587.4327341175971
0.019960693631652874      588.369546337475
0.0202361804194872        589.3235820586809
0.020512071398371242      590.2948412812143
0.020788634626735362      591.2833240050759
0.02106519785666259       592.2514636750232
0.021341088837091095      593.2085953333127
0.021616575626458134      594.154718979944
0.02189192746365859       595.0898346149174
0.022167413983262562      596.0139422382332
0.02244330442495508       596.9270418498905
0.022719866848742224      597.82913344989
0.022979399160698737      598.5880304655459
0.023238374879971102      599.3263866509119
0.023497016060546046      600.0442020059878
0.023755545618429033      600.7414765307735
0.02401418675823971       601.4182102252696
0.024273162396088833      602.0744030894751
0.024532694586172417      602.7100551233909
0.02477660912165014       603.2392188625565
0.02502006144574469       603.7378941122316
0.025263236063116538      604.2060808724166
0.025506318110783622      604.6437791431111
0.025749492937193107      605.0509889243158
0.02599294567888585       605.4277102160299
0.026236860839573585      605.7739430182539
0.026448783285734738      606.0254875491855
0.02666040214894219       606.2602780029215
0.026871838668653707      606.4783143794621
0.027083214398089334      606.6795966788071
0.027294650995312687      606.864124900957
0.027506270013410168      607.0318990459111
0.02771819269157351       607.18291911367
0.02793011110637494       607.2523032921516
0.028141727080496122      607.3037205952654
0.028353161680798985      607.3371710230111
0.028564536285796558      607.3526545753889
0.028775972377325904      607.350171252399
0.028987591331333325      607.3297210540409
0.029199514209569403      607.291303980315
0.02944342851784522       607.1265411715151
0.02968687930793418       606.9232510161665
0.02993005164788383       606.681433514269
0.030173131241734534      606.4010886658225
0.0304163040060093        606.0822164708275
0.0306597556437771        605.7248169292832
0.030903671221153783      605.3288900411902
0.031163203382828072      604.7619369246852
0.03142217899245488       604.1535415487792
0.03168082010415685       603.5037039134722
0.03193934963397098       602.8124240187643
0.032197990786442934      602.0797018646558
0.03245696647750436       601.3055374511459
0.032716498761068635      600.4899307782354
0.03299306118333142       599.4622762595175
0.03326895162351545       598.4152467220198
0.03354443814161999       597.3488421657421
0.03381978997732317       596.2630625906844
0.034095276765188226      595.1579079968473
0.03437116774410313       594.0333783842298
0.03464773097249833       592.8894737528326
0.034924294202460265      591.683280275354
0.03520018518292322       590.4954429877018
0.03547567197232456       589.325961889876
0.035751023809559274      588.1748369818768
0.036026510329197556      587.0420682637042
0.036302400770924524      585.9276557353578
0.03657896319474637       584.831599396838
0.036838495506703706      583.8022803418245
0.03709747122597688       582.8215969197876
0.037356112406552636      581.8895491307269
0.03761464196443644       581.0061369746427
0.03787328310424792       580.1713604515353
0.03813225874209787       579.3852195614039
0.03839179093218227       578.6477143042491
0.03863570546763781       577.9800573416063
0.038879157791710306      577.3716259391973
0.03912233240906017       576.8224200970221
0.03936541445670531       576.3324398150808
0.039608589283092806      575.9016850933737
0.039852042024763494      575.5301559318999
0.04009595718542905       575.2178523306603
0.040307879631580334      574.9782123716586
0.04051949849477797       574.7858099126779
0.0407309350144797        574.6406449537177
0.040942310743905544      574.5427174947783
0.04115374734111909       574.4920275358602
0.04136536635920676       574.4885750769623
0.04157728903736024       574.5323601180855
0.04178920745215007       574.6286036609166
0.042000823426259694      574.7706283594523
0.042212258026551035      574.9584342136927
0.04242363263153709       575.1920212236378
0.0426350687230549        575.4713893892877
0.042846687677050764      575.796538710642
0.04305861055527523       576.1674691877012
0.04330252486354604       576.6176631734319
0.043545975653630026      577.1303144016637
0.04378914799357473       577.7054228723965
0.044032227587420474      578.3429885856305
0.04427540035169028       579.0430115413657
0.04451885198945311       579.8054917396016
0.044762767566824783      580.6304291803389
0.045022299728516735      581.5345935239716
0.04528127533816108       582.481414618975
0.045539916449880535      583.4708924653488
0.045798445979712124      584.5030270630933
0.046057087132201545      585.5778184122086
0.04631606282328052       586.6952665126939
0.046575595106862454      587.8553713645501
0.04685215752913061       589.0922366858067
0.04712804796931999       590.3499552329312
0.04740353448742985       591.6285270059232
0.04767888632313835       592.9279520047829
0.04795437311100872       594.2482302295107
0.048230264089928976      595.589361680106
0.048506827318329566      596.951346356569
0.04878339054829114       598.246895859391
0.049059281528753745      599.5231036358748
0.04933476831815475       600.7799696860209
0.0496101201553891        602.0174940098287
0.04988560667502701       603.2356766072991
0.05016149711675364       604.4345174784312
0.050438059540575134      605.6140166232254
0.05069759185254397       606.5653372237533
0.05095656757182859       607.4736842742051
0.05121520875241573       608.3390577745809
0.05147373831031092       609.1614577248807
0.051732379450133786      609.9408841251047
0.05199135508799517       610.6773369752525
0.05225088727809108       611.3708162753245
0.0524948018135407        611.9126146994374
0.052738254137607306      612.40022575667
0.05298142875495131       612.8336494470223
0.05322451080259058       613.2128857704942
0.0534676856289722        613.537934727086
0.05371113837063701       613.8087963167973
0.05395505353129665       614.0254705396284
0.05416697597743634       614.1510387425542
0.054378594840622414      614.2379736500119
0.05459003136031263       614.2862752620015
0.05480140708972696       614.2959435785231
0.05501284368692898       614.2669785995768
0.0552244627050051        614.1993803251622
0.05543638538314697       614.0931487552797
