% Model:              brazing.mph
% Version:            COMSOL 5.3.0.223
% Date:               Oct 23 2018, 10:11
% Dimension:          1
% Nodes:              225
% Expressions:        1
% Description:        Line graph
% x                       Height
0                         652.4300944878903
2.1191841480136804E-4     652.3410645107656
4.2353438892247565E-4     652.2115510594001
6.349689892252786E-4      652.0415541337942
8.463435942227858E-4      651.8310737339476
0.001057779685752053      651.5801098598607
0.001269398639759412      651.2886625115328
0.001481321517995422      650.9567316889645
0.0017252358262731596     650.5132414505125
0.0019686866163640313     650.0370777373138
0.0022118589563155885     649.5282405493681
0.002454938550168189      648.9867298866754
0.0026981113144448556     648.4125457492364
0.0029415629522145732     647.8056881370502
0.0031854785295931678     647.1661570501172
0.0034450106912723537     646.3818677681795
0.0037039863009040125     645.5639752216406
0.003962627412610827      644.7124794105004
0.0042211569424298        643.8273803347589
0.004479798094906585      642.9086779944164
0.004738773785972872      641.9563723894723
0.004998306069542035      640.9704635199273
0.005274868491808245      639.8244924867736
0.005550758931995686      638.6600072719242
0.0058262454501036105     637.4770078753791
0.006101597285810183      636.2754942971385
0.006377084073678616      635.0554665372025
0.006652975052596927      633.8169245955705
0.006929538280995558      632.5598684722431
0.007206101510950518      631.2637345021193
0.007481992491406557      629.984973054753
0.007757479280801014      628.7235841301443
0.00803283111802884       627.479567728293
0.008308317637660222      626.2529238491993
0.008584208079380276      625.0436524928629
0.008860770503195153      623.8517536592841
0.009120302815147717      622.7358575643411
0.00937927853441616       621.6622024163515
0.009637919714987194      620.6307882153151
0.009896449272866283      619.641614961232
0.010155090412673047      618.6946826541025
0.010414066050518256      617.7899912939259
0.01067359824059789       616.9275408807028
0.010917512776055054      616.142551983517
0.011160965100129169      615.4105669455129
0.011404139717480647      614.7315857666905
0.01164722176512739       614.1056084470497
0.011890396591516505      613.5326349865911
0.012133849333188814      613.0126653853139
0.012377764493855997      612.5456996432185
0.01258968694000722       612.1835926800087
0.012801305803204788      611.8636247858274
0.013012742322906452      611.5857959606745
0.013224118052332232      611.3501062045501
0.01343555464954572       611.1565555174545
0.013647173667633327      611.0051438993869
0.013859096345786744      610.8958713503481
0.014071014760598048      610.8463484928438
0.014282630734729056      610.8380667697637
0.01449406533504172       610.8710261811074
0.014705439940049088      610.945226726875
0.014916876031588231      611.0606684070668
0.015128494985605482      611.2173512216824
0.015340417863851432      611.4152751707221
0.01558433217214941       611.6604811425981
0.015827782962260412      611.966793535682
0.016070955302232025      612.3342123499735
0.016314034896104664      612.762737585473
0.0165572076604014        613.2523692421805
0.01680065929819124       613.8031073200957
0.01704457487559009       614.4149518192188
0.01730410703726679       615.0835687940158
0.017563082646895985      615.7933676468489
0.01782172375860034       616.5443483777178
0.018080253288416847      617.3365109866229
0.01833889444089119       618.1698554735642
0.018597870131955005      619.0443818385414
0.018857402415521692      619.9600900815548
0.019133964837753384      620.9488709034302
0.019409855277906563      621.956019862937
0.019685341795980367      622.9815369600747
0.019960693631652874      624.0254221948436
0.0202361804194872        625.0876755672439
0.020512071398371242      626.1682970772749
0.020788634626735362      627.2672867249374
0.02106519785666259       628.3491788858385
0.021341088837091095      629.4180322534012
0.021616575626458134      630.4738468276255
0.02189192746365859       631.5166226085116
0.022167413983262562      632.5463595960596
0.02244330442495508       633.5630577902689
0.022719866848742224      634.5667171911402
0.022979399160698737      635.4171810821327
0.023238374879971102      636.2434268711639
0.023497016060546046      637.0454545582339
0.023755545618429033      637.8232641433427
0.02401418675823971       638.5768556264907
0.024273162396088833      639.306229007677
0.024532694586172417      640.0113842869023
0.02477660912165014       640.6025594028989
0.02502006144574469       641.1592075600081
0.025263236063116538      641.6813287582295
0.025506318110783622      642.1689229975635
0.025749492937193107      642.6219902780102
0.02599294567888585       643.0405305995691
0.026236860839573585      643.4245439622406
0.026448783285734738      643.704629328477
0.02666040214894219       643.9649428593374
0.026871838668653707      644.205484554822
0.027083214398089334      644.4262544149304
0.027294650995312687      644.6272524396634
0.027506270013410168      644.8084786290199
0.02771819269157351       644.9699329830007
0.02793011110637494       645.0434104918961
0.028141727080496122      645.0957760141793
0.028353161680798985      645.1270295498501
0.028564536285796558      645.1371710989085
0.028775972377325904      645.126200661355
0.028987591331333325      645.0941182371887
0.029199514209569403      645.0409238264103
0.02944342851784522       644.8471386737696
0.02968687930793418       644.6106510059815
0.02993005164788383       644.3314608230456
0.030173131241734534      644.0095681249624
0.0304163040060093        643.6449729117321
0.0306597556437771        643.2376751833539
0.030903671221153783      642.7876749398283
0.031163203382828072      642.1504222146062
0.03142217899245488       641.4667210455956
0.03168082010415685       640.7365714327968
0.03193934963397098       639.9599733762095
0.032197990786442934      639.1369268758343
0.03245696647750436       638.2674319316702
0.032716498761068635      637.351488543718
0.03299306118333142       636.206056880823
0.03326895162351545       635.0383595188457
0.03354443814161999       633.848396457786
0.03381978997732317       632.6361676976438
0.034095276765188226      631.4016732384196
0.03437116774410313       630.1449130801127
0.03464773097249833       628.8658872227236
0.034924294202460265      627.5265439161938
0.03520018518292322       626.2064787994287
0.03547567197232456       624.9056918724285
0.035751023809559274      623.6241831351934
0.036026510329197556      622.3619525877235
0.036302400770924524      621.1190002300182
0.03657896319474637       619.8953260620781
0.036838495506703706      618.7510642731253
0.03709747122597688       617.660142637598
0.037356112406552636      616.6225611554959
0.03761464196443644       615.638319826819
0.03787328310424792       614.7074186515681
0.03813225874209787       613.8298576297419
0.03839179093218227       613.0056367613413
0.03863570546763781       612.2609152701401
0.038879157791710306      611.5819888207416
0.03912233240906017       610.9688574131453
0.03936541445670531       610.4215210473515
0.039608589283092806      609.9399797233606
0.039852042024763494      609.5242334411716
0.04009595718542905       609.1742822007856
0.040307879631580334      608.9056982343855
0.04051949849477797       608.6895407707353
0.0407309350144797        608.5258098098349
0.040942310743905544      608.414505351684
0.04115374734111909       608.3556273962835
0.04136536635920676       608.3491759436322
0.04157728903736024       608.3951509937309
0.04178920745215007       608.5000662537153
0.042000823426259694      608.655796394317
0.042212258026551035      608.8623414155361
0.04242363263153709       609.1197013173726
0.0426350687230549        609.4278760998268
0.042846687677050764      609.786865762898
0.04305861055527523       610.1966703065867
0.04330252486354604       610.6941415702305
0.043545975653630026      611.2610850516297
0.04378914799357473       611.8975007507845
0.044032227587420474      612.6033886676947
0.04427540035169028       613.3787488023609
0.04451885198945311       614.2235811547821
0.044762767566824783      615.137885724959
0.045022299728516735      616.1417216110898
0.04528127533816108       617.1924072980659
0.045539916449880535      618.289942785887
0.045798445979712124      619.4343280745534
0.046057087132201545      620.6255631640652
0.04631606282328052       621.863648054422
0.046575595106862454      623.1485827456243
0.04685215752913061       624.5237336321171
0.04712804796931999       625.9212619472258
0.04740353448742985       627.3411676909501
0.04767888632313835       628.7834508632903
0.04795437311100872       630.2481114642464
0.048230264089928976      631.735149493818
0.048506827318329566      633.2445649520056
0.04878339054829114       634.6864927169755
0.049059281528753745      636.1064899003665
0.04933476831815475       637.5045565021783
0.0496101201553891        638.8806925224112
0.04988560667502701       640.2348979610654
0.05016149711675364       641.5671728181402
0.050438059540575134      642.8775170936361
0.05069759185254397       643.9401952637163
0.05095656757182859       644.9550079028874
0.05121520875241573       645.9219550111493
0.05147373831031092       646.8410365885018
0.051732379450133786      647.7122526349455
0.05199135508799517       648.5356031504797
0.05225088727809108       649.3110881351048
0.0524948018135407        649.919960350096
0.052738254137607306      650.4687709740163
0.05298142875495131       650.9575200068653
0.05322451080259058       651.3862074486434
0.0534676856289722        651.754833299351
0.05371113837063701       652.0633975589872
0.05395505353129665       652.3119002275525
0.05416697597743634       652.4585524252574
0.054378594840622414      652.561948855172
0.05459003136031263       652.622089517296
0.05480140708972696       652.63897441163
0.05501284368692898       652.6126035381739
0.0552244627050051        652.5429768969271
0.05543638538314697       652.4300944878903
