% Model:              brazing.mph
% Version:            COMSOL 5.3.0.223
% Date:               Oct 23 2018, 09:54
% Dimension:          1
% Nodes:              225
% Expressions:        1
% Description:        Line graph
% x                       Height
0                         632.288474997705
2.1191841480136804E-4     632.1976205640032
4.2353438892247565E-4     632.0656545888882
6.349689892252786E-4      631.89257707236
8.463435942227858E-4      631.6783880144189
0.001057779685752053      631.423087415065
0.001269398639759412      631.1266752742976
0.001481321517995422      630.7891515921173
0.0017252358262731596     630.3395492317084
0.0019686866163640313     629.8574415749817
0.0022118589563155885     629.3428286219372
0.002454938550168189      628.7957103725751
0.0026981113144448556     628.2160868268957
0.0029415629522145732     627.603957984898
0.0031854785295931678     626.959323846583
0.0034450106912723537     626.1621821538587
0.0037039863009040125     625.3325880569436
0.003962627412610827      624.4705415558376
0.0042211569424298        623.5760426505407
0.004479798094906585      622.6490913410532
0.004738773785972872      621.6896876273746
0.004998306069542035      620.6978315095054
0.005274868491808245      619.5309892741623
0.005550758931995686      618.346969582344
0.0058262454501036105     617.1457724340505
0.006101597285810183      615.9273978292819
0.006377084073678616      614.6918457680384
0.006652975052596927      613.4391162503196
0.006929538280995558      612.1692092761258
0.007206101510950518      610.8486298414905
0.007481992491406557      609.5471666002884
0.007757479280801014      608.2648195525195
0.00803283111802884       607.0015886981838
0.008308317637660222      605.7574740372817
0.008584208079380276      604.5324755698124
0.008860770503195153      603.3265932957765
0.009120302815147717      602.1929549403352
0.00937927853441616       601.1032464949003
0.009637919714987194      600.0574679594716
0.009896449272866283      599.0556193340494
0.010155090412673047      598.0977006186337
0.010414066050518256      597.1837118132241
0.01067359824059789       596.3136529178211
0.010917512776055054      595.5215110666154
0.011160965100129169      594.7833965874145
0.011404139717480647      594.0993094802183
0.01164722176512739       593.4692497450269
0.011890396591516505      592.8932173818406
0.012133849333188814      592.3712123906588
0.012377764493855997      591.903234771482
0.01258968694000722       591.5416588556774
0.012801305803204788      591.2232265439469
0.013012742322906452      590.9479378362903
0.013224118052332232      590.7157927327078
0.01343555464954572       590.5267912331997
0.013647173667633327      590.3809333377651
0.013859096345786744      590.278219046405
0.014071014760598048      590.2350450002083
0.014282630734729056      590.2343154649824
0.01449406533504172       590.2760304407269
0.014705439940049088      590.3601899274423
0.014916876031588231      590.4867939251284
0.015128494985605482      590.6558424337849
0.015340417863851432      590.8673354534121
0.01558433217214941       591.1332524209619
0.015827782962260412      591.4602485287936
0.016070955302232025      591.8483237769071
0.016314034896104664      592.2974781653024
0.0165572076604014        592.8077116939801
0.01680065929819124       593.3790243629393
0.01704457487559009       594.0114161721806
0.01730410703726679       594.7023772167465
0.017563082646895985      595.436327326178
0.01782172375860034       596.2132665004752
0.018080253288416847      597.033194739638
0.01833889444089119       597.8961120436667
0.018597870131955005      598.8020184125609
0.018857402415521692      599.7509138463207
0.019133964837753384      600.7653644333022
0.019409855277906563      601.8001459932027
0.019685341795980367      602.8552585260223
0.019960693631652874      603.9307020317607
0.0202361804194872        605.0264765104184
0.020512071398371242      606.1425819619949
0.020788634626735362      607.2790183864905
0.02106519785666259       608.382821687707
0.021341088837091095      609.4752222918718
0.021616575626458134      610.5562201989849
0.02189192746365859       611.6258154090463
0.022167413983262562      612.6840079220565
0.02244330442495508       613.7307977380148
0.022719866848742224      614.7661848569217
0.022979399160698737      615.6279416328101
0.023238374879971102      616.4678160559376
0.023497016060546046      617.2858081263039
0.023755545618429033      618.0819178439091
0.02401418675823971       618.8561452087536
0.024273162396088833      619.6084902208365
0.024532694586172417      620.3389528801587
0.02477660912165014       620.9381471565525
0.02502006144574469       621.5024578005468
0.025263236063116538      622.0318848121414
0.025506318110783622      622.5264281913363
0.025749492937193107      622.9860879381318
0.02599294567888585       623.4108640525274
0.026236860839573585      623.8007565345235
0.026448783285734738      624.0801594711255
0.02666040214894219       624.3412803934718
0.026871838668653707      624.5841193015622
0.027083214398089334      624.8086761953967
0.027294650995312687      625.0149510749759
0.027506270013410168      625.2029439402988
0.02771819269157351       625.3726547913661
0.02793011110637494       625.4434806510608
0.028141727080496122      625.4947010022217
0.028353161680798985      625.5263158448491
0.028564536285796558      625.5383251789427
0.028775972377325904      625.5307290045031
0.028987591331333325      625.5035273215295
0.029199514209569403      625.4567201300224
0.02944342851784522       625.2680356177772
0.02968687930793418       625.0338288876563
0.02993005164788383       624.7540999396601
0.030173131241734534      624.4288487737881
0.0304163040060093        624.058075390041
0.0306597556437771        623.6417797884181
0.030903671221153783      623.1799619689198
0.031163203382828072      622.5210819484814
0.03142217899245488       621.8153633906279
0.03168082010415685       621.0628062953595
0.03193934963397098       620.2634106626757
0.032197990786442934      619.4171764925774
0.03245696647750436       618.5241037850637
0.032716498761068635      617.5841925401352
0.03299306118333142       616.3971052222289
0.03326895162351545       615.1886692142778
0.03354443814161999       613.9588845162815
0.03381978997732317       612.7077511282405
0.034095276765188226      611.4352690501547
0.03437116774410313       610.1414382820236
0.03464773097249833       608.8262588238479
0.034924294202460265      607.4292986215959
0.03520018518292322       606.0547285929407
0.03547567197232456       604.7025487378826
0.035751023809559274      603.3727590564215
0.036026510329197556      602.0653595485575
0.036302400770924524      600.7803502142901
0.03657896319474637       599.51773105362
0.036838495506703706      598.3273923433349
0.03709747122597688       597.1928491940328
0.037356112406552636      596.1141016057136
0.03761464196443644       595.0911495783774
0.03787328310424792       594.1239931120248
0.03813225874209787       593.2126322066547
0.03839179093218227       592.3570668622679
0.03863570546763781       591.5824380268598
0.038879157791710306      590.8750137956525
0.03912233240906017       590.2347941686456
0.03936541445670531       589.6617791458394
0.039608589283092806      589.1559687272343
0.039852042024763494      588.7173629128292
0.04009595718542905       588.3459617026251
0.040307879631580334      588.0615102225727
0.04051949849477797       587.8307924081857
0.0407309350144797        587.6538082594643
0.040942310743905544      587.5305577764085
0.04115374734111909       587.4610409590185
0.04136536635920676       587.4452578072936
0.04157728903736024       587.4832083212345
0.04178920745215007       587.5815342853379
0.042000823426259694      587.7320747671268
0.042212258026551035      587.9348297666011
0.04242363263153709       588.1897992837607
0.0426350687230549        588.4969833186063
0.042846687677050764      588.8563818711369
0.04305861055527523       589.2679949413533
0.04330252486354604       589.773057630682
0.043545975653630026      590.3484373800297
0.04378914799357473       590.9941341893963
0.044032227587420474      591.7101480587817
0.04427540035169028       592.4964789881864
0.04451885198945311       593.3531269776096
0.044762767566824783      594.280092027052
0.045022299728516735      595.298484844035
0.04528127533816108       596.3663086557053
0.045539916449880535      597.4835634620625
0.045798445979712124      598.6502492631068
0.046057087132201545      599.8663660588385
0.04631606282328052       601.1319138492568
0.046575595106862454      602.4468926343624
0.04685215752913061       603.8449661403855
0.04712804796931999       605.2682920315892
0.04740353448742985       606.7168703079731
0.04767888632313835       608.1907009695371
0.04795437311100872       609.6897840162819
0.048230264089928976      611.2141194482067
0.048506827318329566      612.7637072653118
0.04878339054829114       614.2315420724408
0.049059281528753745      615.678894959337
0.04933476831815475       617.1057659260005
0.0496101201553891        618.512154972431
0.04988560667502701       619.8980620986289
0.05016149711675364       621.2634873045938
0.050438059540575134      622.6084305903261
0.05069759185254397       623.6889908321572
0.05095656757182859       624.7213781489506
0.05121520875241573       625.7055925407063
0.05147373831031092       626.6416340074247
0.051732379450133786      627.5295025491057
0.05199135508799517       628.3691981657487
0.05225088727809108       629.1607208573544
0.0524948018135407        629.7784813034245
0.052738254137607306      630.3345883534759
0.05298142875495131       630.8290420075078
0.05322451080259058       631.2618422655207
0.0534676856289722        631.6329891275147
0.05371113837063701       631.9424825934894
0.05395505353129665       632.1903226634452
0.05416697597743634       632.334817175639
0.054378594840622414      632.4358207711139
0.05459003136031263       632.4933334498699
0.05480140708972696       632.5073552119069
0.05501284368692898       632.4778860572253
0.0552244627050051        632.4049259858244
0.05543638538314697       632.288474997705
