% Model:              brazing.mph
% Version:            COMSOL 5.3.0.223
% Date:               Oct 19 2018, 23:37
% Dimension:          1
% Nodes:              193
% Expressions:        1
% Description:        Line graph
% x                       Height
0                         613.9297450946844
1.6028433640637486E-4     614.0166043555867
3.201839556876346E-4      614.0956887611642
4.7982673004648776E-4     614.1669983114173
6.393411493738095E-4      614.2305330063457
7.988560137323205E-4      614.2862928459496
9.58500122107595E-4       614.3342778302291
0.0011184019611720658     614.374487959184
0.0012786893978073315     614.4069232328143
0.0014692881782178572     614.4333535373315
0.0016592398034323465     614.4425315347933
0.0018487589083489172     614.4344572251994
0.00203806159906999       614.4091306085501
0.0022273647228667317     614.3665516848453
0.0024168851255237504     614.3067204540848
0.002606838908709185      614.2296369162688
0.0027974407000143733     614.1353010713973
0.003000214284638094      614.0086409001877
0.0032022105766743216     613.8663497902904
0.003403687017647933      613.7084277417052
0.0036049030444305387     613.5348747544325
0.0038061191011872996     613.345690828472
0.004007595631967136      613.1408759638236
0.00420959207329518       612.9204301604876
0.00441236586612622       612.6843534184638
0.004615139632985625      612.4178764981554
0.004817136048636202      612.1477785818513
0.005018612553936322      611.8740596695517
0.005219828585313435      611.5967197612565
0.005421044586718146      611.3157588569658
0.0056225210022172924     611.0311769566796
0.005824517268584787      610.7429740603978
0.006027290827249049      610.4511501681205
0.006217890949519272      610.1467360133369
0.006407844130704021      609.8611720214855
0.0065973647866391935     609.5944581925661
0.00678666880286996       609.346594526579
0.006975972806121895      609.117581023524
0.007165493423165078      608.9074176834013
0.007355446539677438      608.7161045062106
0.007546046571713631      608.5436414919523
0.00770633524869351       608.4147973199836
0.007866237248851195      608.3039110576136
0.008025880956992212      608.2109827048424
0.008185395381580456      608.1360122616697
0.008344909844757132      608.0789997280958
0.008504553668569658      608.0399451041206
0.008664455861201733      608.0188483897441
0.008824744806995652      608.0157095849662
0.008985029143401957      608.0321960982976
0.009144928762683142      608.071144027003
0.009304571537041926      608.1325533710822
0.009464085956369179      608.2164241305351
0.00962360082072762       608.3227563053617
0.009783244929102828      608.4515498955624
0.009943146768167231      608.6028049011367
0.010103434204802428      608.7765213220848
0.010294032985212885      608.9751485159538
0.010483984610427306      609.1940847765351
0.01067350371534381       609.4333301038289
0.010862806406064813      609.692884497835
0.011052109529861487      609.9727479585536
0.011241629932518437      610.2729204859844
0.011431583715703804      610.5934020801277
0.011622185507008923      610.9341927409833
0.011824959091632737      611.2710217834536
0.012026955383669057      611.6000743026865
0.012228431824642762      611.9213502986819
0.01242964785142546       612.2348497714399
0.012630863908182311      612.5405727209605
0.012832340438962243      612.8385191472437
0.01303433688029038       613.1286890502895
0.013237110673121513      613.4110824300977
0.013439884439981065      613.6684241093583
0.013641880855631786      613.9055398304874
0.013843357360932049      614.122429593485
0.014044573392309304      614.3190933983512
0.014245789393714157      614.495531245086
0.014447265809213447      614.6517431336894
0.014649262075581083      614.7877290641612
0.01485203563424549       614.9034890365016
0.015042635756515686      614.9980964884822
0.015232588937700405      615.0754267627924
0.015422109593635547      615.1354798594318
0.015611413609866287      615.1782557784007
0.015800717613118194      615.203754519699
0.01599023823016135       615.2119760833268
0.01618019134667368       615.2029204692839
0.016370791378709844      615.1765876775703
0.016531080055689654      615.1274652915905
0.01669098205584727       615.0743740908176
0.016850625763988217      615.0173140752521
0.017010140188576394      614.9562852448937
0.017169654651752998      614.8912875997426
0.017329298475565455      614.8223211397984
0.017489200668197463      614.7493858650615
0.01764948961399131       614.6724817755318
0.01780977395039525       614.5645205549089
0.017969673569674088      614.4442654044686
0.018129316344030533      614.3117163242114
0.01828883076335545       614.1668733141368
0.01844834562771156       614.0097363742449
0.01860798973608443       613.8403055045358
0.018767891575146484      613.6585807050095
0.018928179011779317      613.464561975666
0.019118777792188433      613.1724983898881
0.019308729417401523      612.8575516621448
0.019498248522316707      612.5197217924363
0.019687551213036395      612.1590087807622
0.019876854336831753      611.7754126271227
0.02006637473948738       611.3689333315181
0.020256328522671414      610.9395708939479
0.020446930313975188      610.4873253144124
0.02064970389860279       609.9465631749723
0.02085170019064286       609.3925966130895
0.02105317663162028       608.825425628764
0.02125439265840668       608.2450502219959
0.021455608715167235      607.6514703927852
0.02165708524595088       607.0446861411317
0.021859081687282764      606.4246974670356
0.02206185548011769       605.7915043704967
0.022264629246980954      605.1622584775961
0.022466625662635346      604.5455914083464
0.022668102167939252      603.9415031627475
0.022869318199320136      603.3499937407994
0.023070534200728618      602.7710631425023
0.023272010616231548      602.2047113678559
0.023474006882602858      601.6509384168604
0.02367678044127098       601.1097442895159
0.02386738056353977       600.5880449028572
0.024057333744723106      600.1020409396974
0.02424685440065687       599.6517324000359
0.024436158416886237      599.2371192838733
0.02462546242013677       598.8582015912092
0.024814983037178547      598.5149793220438
0.025004936153689494      598.2074524763771
0.025195536185724256      597.9356210542089
0.0253558248627017        597.7014826602501
0.025515726862856965      597.4978434082208
0.025675370570995573      597.3247032981209
0.02583488499558142       597.1820623299506
0.02599439945875569       597.0699205037098
0.02615404328256581       596.9882778193984
0.026313945475195465      596.9371342770165
0.026474234420986946      596.9164898765641
0.026634518757392422      596.9207563019125
0.02679441837667279       596.9518724821232
0.026954061151030752      597.009838417196
0.02711357557035719       597.094654107131
0.027273090434714816      597.206319551928
0.027432734543089202      597.3448347515874
0.027592636382152785      597.5101997061089
0.02775292381878715       597.7024144154926
0.02794352259919713       597.9416653331981
0.02813347422441108       598.215390139425
0.028322993329327112      598.5235888341738
0.028512296020047647      598.8662614174441
0.02870159914384385       599.2434078892361
0.028891119546500334      599.6550282495497
0.02908107332968523       600.101122498385
0.029271675120989875      600.581690635742
0.02947444870561504       601.1097088083309
0.029676444997652693      601.6497020748286
0.02987792143862772       602.2016704352354
0.030079137465411736      602.7656138895512
0.030280353522169904      603.3415324377761
0.030481830052951155      603.9294260799098
0.030683826494280624      604.5292948159528
0.030886600287113104      605.1411386459046
0.03108937405397396       605.741934369188
0.03129137046962597       606.3366194137609
0.03149284697492751       606.9251937796232
0.03169406300630604       607.5076574667751
0.03189527900771217       608.0840104752162
0.03209675542321274       608.6542528049469
0.03229875168958166       609.218384455967
0.03250152524824737       609.7764054282765
0.03269212537051706       610.227039807415
0.03288207855170127       610.6531047539478
0.033071599207635916      611.0546002678744
0.033260903223866156      611.4315263491951
0.033450207227117564      611.7838829979097
0.033639727844160215      612.1116702140184
0.03382968096067204       612.4148879975211
0.034020280992707694      612.6935363484176
0.034180569669686675      612.8932800940695
0.03434047166984347       613.0801045104732
0.0345001153779836        613.2540095976287
0.03465962980257096       613.4149953555362
0.03481914426574675       613.5630617841956
0.034978788089558385      613.6982088836066
0.03513869028218957       613.8204366537697
0.035298979227982585      613.9297450946844
