% Model:              brazing.mph
% Version:            COMSOL 5.3.0.223
% Date:               Oct 19 2018, 23:17
% Dimension:          1
% Nodes:              145
% Expressions:        1
% Description:        Line graph
% x                       Height
0                         623.6252992658204
1.8037553861809572E-4     623.8675736047289
3.5951128344368776E-4     624.0597421684357
5.377561773732229E-4      624.2018049569413
7.154644111300318E-4      624.2937619702453
8.929933875627798E-4      624.3356132083478
0.0010707015910786408     624.327358671249
0.0012489464247083767     624.2689983589488
0.0014280820795340731     624.160532271447
0.0016084574989771061     624.0019604087438
0.0017793134314883058     623.9392662718759
0.0019491114898538484     623.8533929212613
0.002118149876008701      623.7443403569005
0.0022867308232763497     623.6121085787933
0.002455159027530182      623.4566975869394
0.0026237400128558564     623.2781073813394
0.0027927784749207734     623.0763379619926
0.0029625766466419693     622.8513893288996
0.0031334327293582195     622.6032614820601
0.0033042867504275058     622.4346826622464
0.0034740828875811486     622.2615358410515
0.0036431193341009516     622.083821018476
0.0038116983146850476     621.9015381945196
0.003980124516686077      621.7146873691825
0.004148703455848711      621.5232685424644
0.004317739819749776      621.3272817143654
0.004487535833529769      621.1267268848856
0.004658389691119368      620.921604054025
0.0048387629974717405     620.802650939519
0.005017896580971026      620.6891127212732
0.005196139373513023      620.580989399288
0.0053738455543625        620.4782809735632
0.005551372514551955      620.3809874440987
0.005729078726427549      620.2891088108946
0.005907321580834967      620.2026450739507
0.006086455256670912      620.1215962332673
0.006266828685292636      620.0459622888443
0.0064472042239161545     620.1809081078404
0.0066263399687470585     620.3240931572765
0.00680458486268183       620.4755174371529
0.0069822930964438265     620.6351809474695
0.007159822072881748      620.8030836882263
0.007337530276402798      620.979225659423
0.007515775110037768      621.16360686106
0.007694910764868775      621.3562272931371
0.007875286184317232      621.5570869556543
0.008046142116827224      621.8121215278408
0.008215940175191578      622.0596504713401
0.008384978561345261      622.2996737861528
0.008553559508611747      622.5321914722787
0.008721987712864422      622.7572035297176
0.008890568698188937      622.9747099584695
0.00905960716025268       623.1847107585345
0.009229405331972688      623.3872059299126
0.009400261414687729      623.5821954726041
0.009571115435747398      623.8815322874487
0.009740911572891598      624.1530184981345
0.009909948019402086      624.3966541046619
0.010078526999976944      624.6124391070306
0.010246953201968763      624.8003735052406
0.010415532141122159      624.9604572992919
0.010584568505013912      625.0926904891845
0.010754364518784467      625.1970730749183
0.010925218376364454      625.2736050564937
0.011105591682722255      625.4245617371408
0.01128472526622686       625.5322276551676
0.011462968058774099      625.5966028105745
0.011640674239628768      625.6176872033614
0.011818201199823401      625.5954808335277
0.01199590741170419       625.5299837010742
0.012174150266116847      625.4211958060004
0.012353283941958112      625.2691171483063
0.012533657370585264      625.0737477279923
0.01271403176453574       625.0318447101959
0.012893166387683227      624.9395268817873
0.013071410176518557      624.796794242767
0.013249117315197753      624.603646793135
0.013426645199902413      624.3600845328909
0.013604352308338922      624.0661074620352
0.01378259603687098       623.7217155805673
0.013961730570013379      623.3269088884878
0.014142104844781908      622.8816873857965
0.014312959944399205      622.5017057367121
0.014482757184992078      622.0992498555308
0.014651794764271453      621.6743197422529
0.014820374911240972      621.2269153968783
0.014988802317395246      620.7570368194068
0.01515738250242126       620.2646840098387
0.015326420157607648      619.7498569681737
0.015496217511551624      619.212555694412
0.015667072761367945      618.6527801885536
0.01583792791479403       618.1626369398684
0.016007725163749622      617.6803049857022
0.01617676270725794       617.2057843260553
0.01634534277588875       616.7390749609276
0.016513770062946447      616.280176890319
0.01668235009015449       615.8290901142298
0.016851387551041475      615.3858146326595
0.017021184676619543      614.9503504456085
0.017192039666560827      614.5226975530767
0.017372413817338207      614.1664431227908
0.017551548228302124      613.8355968972569
0.017729791836073705      613.5301588764754
0.017907498824762332      613.2501290604459
0.018085026590318725      612.9955074491688
0.018262733610032132      612.7662940426437
0.018440977279666457      612.5624888408709
0.018620111782963036      612.3840918438501
0.018800486056004474      612.2311030515816
0.018980860449944497      612.309519258189
0.019159995073081745      612.418361239573
0.019338238861906984      612.557628995734
0.01951594600057618       612.7273225266717
0.019693473885270874      612.9274418323864
0.019871180993697383      613.1579869128778
0.020049424722219357      613.4189577681459
0.02022855925535152       613.7103543981909
0.0204089335301096        614.0321768030128
0.02057978862980686       614.4102138376031
0.020749585870478253      614.7918223922668
0.020918623449835097      615.1770024670043
0.021087203596881453      615.5657540618153
0.021255631003112355      615.9580771766998
0.021424211188215206      616.353971811658
0.021593248843479067      616.7534379666897
0.021763046197501558      617.156475641795
0.02193390144739785       617.5630848369739
0.022104756600747556      618.0991058404879
0.02227455384962815       618.6113103474779
0.02244359139306247       619.0996983579444
0.022612171461619885      619.564269871887
0.022780598748604386      620.0050248893058
0.022949178775739036      620.4219634102006
0.02311821623655202       620.8150854345718
0.023288013362055097      621.1843909624189
0.023458868351919994      621.5298799937425
0.02363924250270423       621.9378338153693
0.023818376913674867      622.3020052724802
0.023996620521453065      622.6223943650757
0.02417432751014825       622.8990010931556
0.02435185527571118       623.1318254567199
0.024529562295431146      623.3208674557685
0.02470780596507209       623.4661270903015
0.024886940468375387      623.5676043603188
0.025067314741423676      623.6252992658204
