% Model:              brazing.mph
% Version:            COMSOL 5.3.0.223
% Date:               Oct 19 2018, 23:36
% Dimension:          1
% Nodes:              193
% Expressions:        1
% Description:        Line graph
% x                       Height
0                         618.9634772281665
1.6028433640637486E-4     619.0436327616229
3.201839556876346E-4      619.1165346019673
4.7982673004648776E-4     619.1821827491998
6.393411493738095E-4      619.2405772033204
7.988560137323205E-4      619.2917179643291
9.58500122107595E-4       619.3356050322259
0.0011184019611720658     619.3722384070109
0.0012786893978073315     619.4016180886838
0.0014692881782178572     619.423988527503
0.0016592398034323465     619.4290493030567
0.0018487589083489172     619.4168004153448
0.00203806159906999       619.3872418643675
0.0022273647228667317     619.3403736501247
0.0024168851255237504     619.2761957726165
0.002606838908709185      619.1947082318427
0.0027974407000143733     619.0959110278035
0.003000214284638094      618.9710296114504
0.0032022105766743216     618.8303490429662
0.003403687017647933      618.6738693223507
0.0036049030444305387     618.5015904496039
0.0038061191011872996     618.3135124247259
0.004007595631967136      618.1096352477166
0.00420959207329518       617.8899589185761
0.00441236586612622       617.6544834373044
0.004615139632985625      617.3872218860186
0.004817136048636202      617.1165521687716
0.005018612553936322      616.8424742855635
0.005219828585313435      616.5649882363942
0.005421044586718146      616.2840940212639
0.0056225210022172924     615.9997916401722
0.005824517268584787      615.7120810931195
0.006027290827249049      615.4209623801056
0.006217890949519272      615.1192623656724
0.006407844130704021      614.8361236039732
0.0065973647866391935     614.5715460950081
0.00678666880286996       614.325529838777
0.006975972806121895      614.0980748352799
0.007165493423165078      613.8891810845167
0.007355446539677438      613.6988485864875
0.007546046571713631      613.5270773411925
0.00770633524869351       613.3987484322931
0.007866237248851195      613.2883163491655
0.008025880956992212      613.1957810918093
0.008185395381580456      613.1211426602246
0.008344909844757132      613.0644010544114
0.008504553668569658      613.0255562743696
0.008664455861201733      613.0046083200995
0.008824744806995652      613.0015571916008
0.008985029143401957      613.0186720584695
0.009144928762683142      613.0577870621453
0.009304571537041926      613.1189022026279
0.009464085956369179      613.2020174799173
0.00962360082072762       613.3071328940138
0.009783244929102828      613.4342484449171
0.009943146768167231      613.5833641326274
0.010103434204802428      613.7544799571446
0.010294032985212885      613.9513553035243
0.010483984610427306      614.168301738166
0.01067350371534381       614.4053192610692
0.010862806406064813      614.6624078722342
0.011052109529861487      614.939567571661
0.011241629932518437      615.2367983593495
0.011431583715703804      615.5541002352998
0.011622185507008923      615.8914731995117
0.011824959091632737      616.2256146204505
0.012026955383669057      616.5523656181476
0.012228431824642762      616.8717261926029
0.01242964785142546       617.1836963438163
0.012630863908182311      617.488276071788
0.012832340438962243      617.7854653765178
0.01303433688029038       618.0752642580059
0.013237110673121513      618.3576727162521
0.013439884439981065      618.6126834893381
0.013641880855631786      618.8478716956572
0.013843357360932049      619.0632373352094
0.014044573392309304      619.2587804079947
0.014245789393714157      619.434500914013
0.014447265809213447      619.5903988532644
0.014649262075581083      619.726474225749
0.01485203563424549       619.8427270314667
0.015042635756515686      619.9406504332036
0.015232588937700405      620.0214014726045
0.015422109593635547      620.0849801496693
0.015611413609866287      620.131386464398
0.015800717613118194      620.1606204167907
0.01599023823016135       620.1726820068475
0.01618019134667368       620.1675712345681
0.016370791378709844      620.1452880999527
0.016531080055689654      620.0998017294206
0.01669098205584727       620.0509352332167
0.016850625763988217      619.9986886113411
0.017010140188576394      619.9430618637938
0.017169654651752998      619.8840549905748
0.017329298475565455      619.821667991684
0.017489200668197463      619.7559008671213
0.01764948961399131       619.686753616887
0.01780977395039525       619.5845915117916
0.017969673569674088      619.4704932618192
0.018129316344030533      619.3444588669697
0.01828883076335545       619.2064883272434
0.01844834562771156       619.0565816426401
0.01860798973608443       618.8947388131597
0.018767891575146484      618.7209598388025
0.018928179011779317      618.5352447195683
0.019118777792188433      618.2527745729454
0.019308729417401523      617.9475913254905
0.019498248522316707      617.6196949772035
0.019687551213036395      617.2690855280844
0.019876854336831753      616.8957629781331
0.02006637473948738       616.4997273273498
0.020256328522671414      616.0809785757343
0.020446930313975188      615.6395167232868
0.02064970389860279       615.1114520443889
0.02085170019064286       614.5705578709534
0.02105317663162028       614.0168342029801
0.02125439265840668       613.4502810404691
0.021455608715167235      612.8708983834204
0.02165708524595088       612.278686231834
0.021859081687282764      611.6736445857098
0.02206185548011769       611.0557734450479
0.022264629246980954      610.4397488447435
0.022466625662635346      609.8361054608508
0.022668102167939252      609.2448432933697
0.022869318199320136      608.6659623423004
0.023070534200728618      608.0994626076427
0.023272010616231548      607.5453440893968
0.023474006882602858      607.0036067875626
0.02367678044127098       606.47425070214
0.02386738056353977       605.9645049419677
0.024057333744723106      605.4895745432981
0.02424685440065687       605.0494595061315
0.024436158416886237      604.6441598304677
0.02462546242013677       604.2736755163069
0.024814983037178547      603.9380065636489
0.025004936153689494      603.6371529724937
0.025195536185724256      603.3711147428414
0.0253558248627017        603.1427761622067
0.025515726862856965      602.9441265614821
0.025675370570995573      602.7751659406678
0.02583488499558142       602.6358942997635
0.02599439945875569       602.5263116387696
0.02615404328256581       602.4464179576858
0.026313945475195465      602.396213256512
0.026474234420986946      602.3756975352486
0.026634518757392422      602.3798344449058
0.02679441837667279       602.4102074027322
0.026954061151030752      602.4668164087279
0.02711357557035719       602.549661462893
0.027273090434714816      602.6587425652275
0.027432734543089202      602.7940597157312
0.027592636382152785      602.9556129144044
0.02775292381878715       603.1434021612467
0.02794352259919713       603.3781776518914
0.02813347422441108       603.6466764915101
0.028322993329327112      603.9488986801028
0.028512296020047647      604.2848442176696
0.02870159914384385       604.6545131042104
0.028891119546500334      605.0579053397253
0.02908107332968523       605.4950209242141
0.029271675120989875      605.9658598576771
0.02947444870561504       606.4830297384761
0.029676444997652693      607.0120180440402
0.02987792143862772       607.5528247743696
0.030079137465411736      608.105449929464
0.030280353522169904      608.6698935093236
0.030481830052951155      609.2461555139481
0.030683826494280624      609.8342359433378
0.030886600287113104      610.4341347974926
0.03108937405397396       611.021521068688
0.03129137046962597       611.6020954049528
0.03149284697492751       612.175857806287
0.03169406300630604       612.7428082726907
0.03189527900771217       613.3029468041636
0.03209675542321274       613.8562734007061
0.03229875168958166       614.4027880623179
0.03250152524824737       614.9424907889992
0.03269212537051706       615.3847199675389
0.03288207855170127       615.802078096074
0.033071599207635916      616.194565174604
0.033260903223866156      616.5621812031293
0.033450207227117564      616.9049261816497
0.033639727844160215      617.222800110165
0.03382968096067204       617.5158029886757
0.034020280992707694      617.7839348171814
0.034180569669686675      617.9749611488083
0.03434047166984347       618.1535350432198
0.0345001153779836        618.319656500416
0.03465962980257096       618.4733255203969
0.03481914426574675       618.6145421031623
0.034978788089558385      618.7433062487125
0.03513869028218957       618.8596179570472
0.035298979227982585      618.9634772281665
