% Model:              brazing.mph
% Version:            COMSOL 5.3.0.223
% Date:               Oct 19 2018, 23:18
% Dimension:          1
% Nodes:              225
% Expressions:        1
% Description:        Line graph
% x                       Height
0                         665.8915029399682
2.3022181212578358E-4     665.7457148078132
4.5999325066962656E-4     665.5724291379017
6.894940081029028E-4      665.3716459302343
9.189044129547812E-4      665.1433651848108
0.001148405006736289      664.8875869016313
0.0013781761183620641     664.6043110806953
0.001608397441069865      664.2935377220034
0.001839314118928521      663.5771353742629
0.0020697760201574002     662.8641670903096
0.002299964597801726      662.1546328701429
0.0025300619515304015     661.4485327137635
0.0027602503975112853     660.7458666211712
0.0029907120357255193     660.0466345923658
0.003221628319839081      659.3508366273476
0.0034518885683530987     658.4365544484759
0.0036816980188178403     657.5126984105957
0.003911236592567028      656.5792685137069
0.004140684848157368      655.6362647578094
0.004370223557282477      654.6836871429035
0.004600033278179856      653.7215356689887
0.004830293931548535      652.7498103360656
0.005060048526376791      651.5921659141954
0.005289355629682316      650.4466291497563
0.005518393850920054      649.3132000427482
0.005747342428834         648.1918785931713
0.00597638081262499       647.0826648010255
0.006205688240655705      645.9855586663107
0.006435443321622868      644.900560189027
0.006665339619110656      643.7359066395346
0.006894787442849326      642.5918651887109
0.007123965728649401      641.4684358365554
0.007353054043912613      640.3656185830685
0.007582232167524012      639.2834134282502
0.007811679667266285      638.2218203721002
0.008041575479707366      637.1808394146187
0.008271887219609135      636.134471862715
0.008501747728772392      635.1248148121621
0.008731337046705121      634.15186826296
0.008960835851156599      633.2156322151085
0.009190425033567954      632.3161066686081
0.009420285272008154      631.4532916234581
0.009650596606620833      630.6271870796592
0.009881512912836019      629.8308201580788
0.010111974573021956      629.0854889844657
0.010342163040896366      628.3911935588195
0.010572260416492441      627.7479338811405
0.010802449016030204      627.1557099514289
0.011032910939230619      626.614521769684
0.011263827639190652      626.1243693359063
0.011494048967061755      625.6588964487203
0.011723820083820682      625.2718675246576
0.011953320682717213      624.963282563718
0.012182731092678062      624.733141565902
0.012412231855226382      624.5814445312095
0.012642003298903411      624.5081914596398
0.012872225116192546      624.5133823511937
0.013102446994778118      624.363640973697
0.013332218499393473      624.314391297734
0.01356171932266464       624.3656333233047
0.013791129793276359      624.5173670504093
0.01402063045289555       624.7695924790479
0.014250401630592404      625.12230960922
0.014480623019759359      625.5755184409261
0.014711539835704642      625.851213580727
0.014942001874208778      626.212569524384
0.015172190588640395      626.6595862718972
0.01540228807899374       627.1922638232664
0.015632476661762654      627.8106021784923
0.015862938437253588      628.5146013375738
0.01609385485945594       629.3042613005118
0.016324115336228646      630.0056932343057
0.016553925013622208      630.7478310412039
0.016783463813500554      631.530674721206
0.017012912294953733      632.3542242743122
0.01724245123020976       633.218479700523
0.01747226117803945       634.1234409998374
0.017702522059672054      635.0691081722563
0.017932276794613372      636.018939466913
0.018161584037218948      636.9951261954882
0.018390622397267263      637.9976683579814
0.018619571113827754      639.026565954393
0.018848609636427344      640.0818189847232
0.019077917203754128      641.1634274489713
0.019307672424828403      642.271391347138
0.019537568573699274      643.2855118246692
0.01976701624968263       644.3147266111997
0.019996194388245302      645.3590357067288
0.020225282556443316      646.418439111257
0.020454460532815345      647.4929368247846
0.02068390788479834       648.5825288473106
0.020913803548616574      649.687215178836
0.02114411498977932       650.5798384259285
0.021373975201947604      651.4846924875515
0.02160356422393484       652.4017773637047
0.02183306273279162       653.3310930543884
0.02206265161925901       654.2726395596029
0.02229251156070728       655.2264168793475
0.02252282259658549       656.1924250136227
0.022753738766914562      656.8287038082253
0.022984200292012823      657.4653364758879
0.023214388625279938      658.1023230166097
0.023444485866429166      658.7396634303914
0.023674674331359946      659.377357717233
0.023905136119473275      660.0154058771338
0.024136052683548088      660.6538079100947
0.024366274021741702      660.8870915932406
0.024596045148762867      661.1211121233341
0.024825545757885373      661.3558695003754
0.02505495617806012       661.5913637243644
0.02528445695083446       661.8275947953015
0.025514228404773787      662.0645627131859
0.025744450232385536      662.3022674780182
0.025974672267095825      662.168486825955
0.026204443926923768      662.0134962987105
0.02643394490485871       661.8372958962843
0.02666335552995085       661.6398856186767
0.026892856344233315      661.4212654658877
0.02712262767714175       661.181435437917
0.02735284922243193       660.9203955347649
0.027583766528201624      660.2470808623275
0.027814229053652367      659.5652302450203
0.028044418253299775      658.8748436828425
0.02827451622829193       658.1759211757949
0.028504705296278778      657.4684627238772
0.028735167558720572      656.7524683270891
0.028966084470753738      656.0279379854311
0.029196345605491433      655.1337693246837
0.02942615593701711       654.207584970223
0.02965569538872289       653.2493849220489
0.029885144521236064      652.2591691801614
0.030114684108324883      651.2369377445609
0.030344494710297387      650.1826906152465
0.030574756249911007      649.0964277922192
0.030804511377321087      647.9179974015594
0.031033819010118435      646.7303804883227
0.031262857758987544      645.5335770525088
0.03149180686390927       644.3275870941179
0.031720845775323685      643.1124106131502
0.031950153732830305      641.8880476096051
0.032179909346355486      640.6544980834833
0.0324098051544111        639.436253834641
0.032639252491552244      638.2259626084506
0.03286843029245836       637.0236244049116
0.0330975181233935        635.8292392240244
0.03332669576210278       634.6428070657893
0.03355614277523119       633.4643279302054
0.033786038098215655      632.2938018172736
0.034016348759356954      631.1774069810825
0.03424620819605658       630.0968811040455
0.034475796445315066      629.0522241861622
0.03470529418235937       628.0434362274332
0.03493488229610333       627.0705172278582
0.035164741462093585      626.133467187437
0.03539505171796626       625.2322861061699
0.035625967353597694      624.3980708861666
0.03585642834714083       623.6220203093878
0.036086616150743635      622.9041343758338
0.03631671286286018       622.2444130855042
0.03654690079812825       621.6428564383997
0.036777362054689705      621.0994644345194
0.03700827808407173       620.614237073864
0.03723849938140827       620.1844312723728
0.03746827046781093       619.8398104762485
0.03769777103645843       619.5803746854908
0.03792718141620601       619.4061239001
0.0381566821485052        619.3170581200762
0.03838645356182577       619.313177345419
0.03861667534858004       619.3944815761287
0.038846895274787324      619.3728838801533
0.039076664838430766      619.4569662595056
0.03930616372759302       619.6467287141858
0.03953557226638858       619.9421712441937
0.039765070991905134      620.3432938495295
0.039994840228642616      620.8500965301928
0.040225059665450036      621.4625792861841
0.04045597761776665       621.9545128877684
0.04068644078597457       622.5333975304246
0.04091663062609736       623.1992332141526
0.041146729240799984      623.9520199389525
0.04137691894925231       624.7917577048244
0.04160738185443156       625.7184465117679
0.04183829941298208       626.7320863597835
0.04206856149768976       627.6908229993674
0.04229837277362926       628.6877092554301
0.04252791316640542       629.7227451279716
0.04275736323887129       630.795930616992
0.04298690376702529       631.9072657224916
0.04321671531340127       633.0567504444696
0.04344697780296935       634.2443847829267
0.043676731016186174      635.491387259865
0.04390603674591497       636.7475643921035
0.04413507359840861       638.0129161796424
0.04436402080919017       639.2874426224814
0.044593057824233256      640.571143720621
0.04482236387867965       641.8640194740606
0.045052117578024006      643.1660698828006
0.045282012653644836      644.4750296933793
0.045511459262636354      645.7674696099266
0.04574063633797325       647.0433896324428
0.04596972344420469       648.3027897609278
0.046198900357357554      649.5456699953818
0.046428346642361965      650.7720303358043
0.04665824123294997       651.9818707821958
0.04688855484177433       653.1051877648836
0.04711841720894409       654.2050832953307
0.04734800837831597       655.2815573735369
0.04757750903201372       656.3346099995024
0.047807100065861544      657.3642411732275
0.04803696216230292       658.3704508947112
0.04826727536583021       659.3532391639544
0.048498193048686675      660.1250396209866
0.048728656077441146      660.8701948836206
0.04895884590902903       661.5887049518562
0.04918894464672031       662.2805698256939
0.04941913460997818       662.9457895051336
0.04964959790176041       663.5843639901749
0.04988051597838159       664.1962932808183
0.05011073543954296       664.4736699925908
0.0503405047004922        664.7393120699224
0.05057000345013497       664.9932195128131
0.05079941201302823       665.2353923212629
0.05102891092631677       665.4658304952723
0.05125868051417213       665.6845340348406
0.051488900464733596      665.8915029399682
