% Model:              brazing.mph
% Version:            COMSOL 5.3.0.223
% Date:               Oct 19 2018, 23:39
% Dimension:          1
% Nodes:              225
% Expressions:        1
% Description:        Line graph
% x                       Height
0                         647.9506448878286
2.3022181212578358E-4     647.8307737061515
4.5999325066962656E-4     647.6833190602736
6.894940081029028E-4      647.5082809501943
9.189044129547812E-4      647.3056593759142
0.001148405006736289      647.0754543374333
0.0013781761183620641     646.8176658347509
0.001608397441069865      646.5322938678678
0.001839314118928521      645.8699168528801
0.0020697760201574002     645.2111430704963
0.002299964597801726      644.5559725207166
0.0025300619515304015     643.9044052035407
0.0027602503975112853     643.2564411189691
0.0029907120357255193     642.6120802670008
0.003221628319839081      641.9713226476368
0.0034518885683530987     641.123334866433
0.0036816980188178403     640.2692288185594
0.003911236592567028      639.4090045040153
0.004140684848157368      638.5426619228012
0.004370223557282477      637.6702010749175
0.004600033278179856      636.791621960363
0.004830293931548535      635.9069245791388
0.005060048526376791      634.8307050658265
0.005289355629682316      633.7684161899792
0.005518393850920054      632.7200579515971
0.005747342428834         631.6856303506804
0.00597638081262499       630.665133387229
0.006205688240655705      629.6585670612425
0.006435443321622868      628.6659313727214
0.006665339619110656      627.5860609304657
0.006894787442849326      626.5275467597016
0.007123965728649401      625.4903888604293
0.007353054043912613      624.4745872326486
0.007582232167524012      623.4801418763598
0.007811679667266285      622.5070527915625
0.008041575479707366      621.5553199782569
0.008271887219609135      620.5896171448101
0.008501747728772392      619.6591887352379
0.008731337046705121      618.7640347495402
0.008960835851156599      617.9041551877173
0.009190425033567954      617.0795500497691
0.009420285272008154      616.2902193356953
0.009650596606620833      615.5361630454963
0.009881512912836019      614.8037274104861
0.010111974573021956      614.1191946402557
0.010342163040896366      613.4825647348054
0.010572260416492441      612.8938376941351
0.010802449016030204      612.353013518245
0.011032910939230619      611.8600922071345
0.011263827639190652      611.4150737608043
0.011494048967061755      610.9899500255368
0.011723820083820682      610.6366969500666
0.011953320682717213      610.3553145343936
0.012182731092678062      610.1458027785179
0.012412231855226382      610.0081616824398
0.012642003298903411      609.9423912461584
0.012872225116192546      609.9484914696747
0.013102446994778118      609.8212975867502
0.013332218499393473      609.784725573119
0.01356171932266464       609.8387754287808
0.013791129793276359      609.9834471537356
0.01402063045289555       610.2187407479839
0.014250401630592404      610.544656211525
0.014480623019759359      610.9611935443593
0.014711539835704642      611.2231856692779
0.014942001874208778      611.5629930917768
0.015172190588640395      611.9806158118558
0.01540228807899374       612.4760538295151
0.015632476661762654      613.0493071447551
0.015862938437253588      613.7003757575748
0.01609385485945594       614.429259667975
0.016324115336228646      615.0785267048736
0.016553925013622208      615.7663638081809
0.016783463813500554      616.4927709778965
0.017012912294953733      617.2577482140208
0.01724245123020976       618.061295516554
0.01747226117803945       618.9034128854953
0.017702522059672054      619.7841003208455
0.017932276794613372      620.6594921097493
0.018161584037218948      621.5613259959883
0.018390622397267263      622.4896019795626
0.018619571113827754      623.444320060472
0.018848609636427344      624.4254802387169
0.019077917203754128      625.4330825142966
0.019307672424828403      626.4671268872119
0.019537568573699274      627.3997083078816
0.01976701624968263       628.3492797895591
0.019996194388245302      629.3158413322441
0.020225282556443316      630.299392935937
0.020454460532815345      631.299934600638
0.02068390788479834       632.3174663263463
0.020913803548616574      633.3519881130626
0.02114411498977932       634.1693518441283
0.021373975201947604      635.0015819402862
0.02160356422393484       635.8486784015365
0.02183306273279162       636.7106412278795
0.02206265161925901       637.587470419315
0.02229251156070728       638.4791659758425
0.02252282259658549       639.3857278974627
0.022753738766914562      639.9607640475076
0.022984200292012823      640.5399001787608
0.023214388625279938      641.1231362912221
0.023444485866429166      641.7104723848915
0.023674674331359946      642.3019084597697
0.023905136119473275      642.8974445158558
0.024136052683548088      643.4970805531503
0.024366274021741702      643.6939762679176
0.024596045148762867      643.8938878573929
0.024825545757885373      644.0968153215763
0.02505495617806012       644.3027586604677
0.02528445695083446       644.5117178740677
0.025514228404773787      644.7236929623751
0.025744450232385536      644.938683925391
0.025974672267095825      644.8083693882754
0.026204443926923768      644.656463552792
0.02643394490485871       644.4829664189411
0.02666335552995085       644.2878779867222
0.026892856344233315      644.0711982561359
0.02712262767714175       643.8329272271814
0.02735284922243193       643.5730648998593
0.027583766528201624      642.9344922153039
0.027814229053652367      642.2875886100412
0.028044418253299775      641.6323540840715
0.02827451622829193       640.9687886373944
0.028504705296278778      640.2968922700105
0.028735167558720572      639.6166649819189
0.028966084470753738      638.9281067731205
0.029196345605491433      638.086854737903
0.02942615593701711       637.2169796001109
0.02965569538872289       636.3184813597442
0.029885144521236064      635.391360016803
0.030114684108324883      634.4356155712875
0.030344494710297387      633.4512480231972
0.030574756249911007      632.4382573725325
0.030804511377321087      631.3301461596074
0.031033819010118435      630.2152776103846
0.031262857758987544      629.0936517248642
0.03149180686390927       627.9652685030461
0.031720845775323685      626.8301279449307
0.031950153732830305      625.6882300505175
0.032179909346355486      624.5395748198068
0.0324098051544111        623.398321354734
0.032639252491552244      622.2660159606229
0.03286843029245836       621.1426586374731
0.0330975181233935        620.0282493852851
0.03332669576210278       618.922788204059
0.03355614277523119       617.826275093794
0.033786038098215655      616.738710054491
0.034016348759356954      615.6963361789473
0.03424620819605658       614.6881540633859
0.034475796445315066      613.714163707807
0.03470529418235937       612.7743651122107
0.03493488229610333       611.868758276597
0.035164741462093585      610.9973432009656
0.03539505171796626       610.1601198853168
0.035625967353597694      609.3814095370925
0.03585642834714083       608.6572069762796
0.036086616150743635      607.9875122028781
0.03631671286286018       607.3723252168878
0.03654690079812825       606.811646018309
0.036777362054689705      606.3054746071415
0.03700827808407173       605.8538109833854
0.03723849938140827       605.4521154296123
0.03746827046781093       605.1287205842709
0.03769777103645843       604.8836264473613
0.03792718141620601       604.7168330188834
0.0381566821485052        604.6283402988377
0.03838645356182577       604.6181482872233
0.03861667534858004       604.6862569840409
0.038846895274787324      604.6690371313462
0.039076664838430766      604.7477714402257
0.03930616372759302       604.9224599106797
0.03953557226638858       605.193102542708
0.039765070991905134      605.5596993363107
0.039994840228642616      606.0222502914876
0.040225059665450036      606.580755408239
0.04045597761776665       607.0375228489505
0.04068644078597457       607.5735784603968
0.04091663062609736       608.1889222425779
0.041146729240799984      608.8835541954938
0.04137691894925231       609.6574743191449
0.04160738185443156       610.5106826135304
0.04183829941298208       611.443179078651
0.04206856149768976       612.3273968252121
0.04229837277362926       613.2478224959502
0.04252791316640542       614.2044560908654
0.04275736323887129       615.1972976099578
0.04298690376702529       616.2263470532275
0.04321671531340127       617.291604420674
0.04344697780296935       618.3930697122979
0.043676731016186174      619.5455342182391
0.04390603674591497       620.7078643751
0.04413507359840861       621.8800601828806
0.04436402080919017       623.0621216415809
0.044593057824233256      624.2540487512014
0.04482236387867965       625.4558415117411
0.045052117578024006      626.6674999232008
0.045282012653644836      627.8792895954772
0.045511459262636354      629.0777930144167
0.04574063633797325       630.2630101800191
0.04596972344420469       631.4349410922847
0.046198900357357554      632.5935857512138
0.046428346642361965      633.7389441568055
0.04665824123294997       634.8710163090605
0.04688855484177433       635.9128740151277
0.04711841720894409       636.9356044234383
0.04734800837831597       637.9392075339923
0.04757750903201372       638.9236833467895
0.047807100065861544      639.8890318618305
0.04803696216230292       640.8352530791146
0.04826727536583021       641.7623469986422
0.048498193048686675      642.4778538373223
0.048728656077441146      643.1721163492851
0.04895884590902903       643.8451345345304
0.04918894464672031       644.4969083930583
0.04941913460997818       645.127437924869
0.04964959790176041       645.736723129962
0.04988051597838159       646.3247640083378
0.05011073543954296       646.5828609387042
0.0503405047004922        646.8323484579718
0.05057000345013497       647.0732265661406
0.05079941201302823       647.3054952632108
0.05102891092631677       647.5291545491823
0.05125868051417213       647.7442044240547
0.051488900464733596      647.9506448878286
