% Model:              brazing.mph
% Version:            COMSOL 5.3.0.223
% Date:               Oct 19 2018, 23:42
% Dimension:          1
% Nodes:              193
% Expressions:        1
% Description:        Line graph
% x                       Height
0                         612.7914632713653
1.6028433640637486E-4     612.8798141144466
3.201839556876346E-4      612.9603436371118
4.7982673004648776E-4     613.0330518393605
6.393411493738095E-4      613.0979387211929
7.988560137323205E-4      613.155004282609
9.58500122107595E-4       613.2042485236087
0.0011184019611720658     613.245671444192
0.0012786893978073315     613.279273044359
0.0014692881782178572     613.3074638217178
0.0016592398034323465     613.3187766801242
0.0018487589083489172     613.3132116195782
0.00203806159906999       613.2907686400797
0.0022273647228667317     613.2514477416287
0.0024168851255237504     613.1952489242252
0.002606838908709185      613.1221721878694
0.0027974407000143733     613.032217532561
0.003000214284638094      612.9079416319538
0.0032022105766743216     612.7682254657221
0.003403687017647933      612.6130690338659
0.0036049030444305387     612.4424723363851
0.0038061191011872996     612.2564353732796
0.004007595631967136      612.0549581445495
0.00420959207329518       611.8380406501949
0.00441236586612622       611.6056828902157
0.004615139632985625      611.3435652683675
0.004817136048636202      611.077829669934
0.005018612553936322      610.8084760949154
0.005219828585313435      610.5355045433113
0.005421044586718146      610.2589150151219
0.0056225210022172924     609.9787075103475
0.005824517268584787      609.6948820289878
0.006027290827249049      609.4074385710427
0.006217890949519272      609.1068485109379
0.006407844130704021      608.8248049466754
0.0065973647866391935     608.5613078782549
0.00678666880286996       608.3163573056767
0.006975972806121895      608.0899532289407
0.007165493423165078      607.8820956480467
0.007355446539677438      607.692784562995
0.007546046571713631      607.5220199737855
0.00770633524869351       607.3942211235498
0.007866237248851195      607.2841539617966
0.008025880956992212      607.1918184885262
0.008185395381580456      607.1172147037385
0.008344909844757132      607.0603426074333
0.008504553668569658      607.0212021996109
0.008664455861201733      606.9997934802711
0.008824744806995652      606.996116449414
0.008985029143401957      607.0114277562948
0.009144928762683142      607.0489403608063
0.009304571537041926      607.1086542629489
0.009464085956369179      607.1905694627222
0.00962360082072762       607.2946859601266
0.009783244929102828      607.4210037551617
0.009943146768167231      607.5695228478278
0.010103434204802428      607.7402432381248
0.010294032985212885      607.935474849769
0.010483984610427306      608.1506823081294
0.01067350371534381       608.3858656132061
0.010862806406064813      608.6410247649987
0.011052109529861487      608.9161597635077
0.011241629932518437      609.2112706087329
0.011431583715703804      609.5263573006742
0.011622185507008923      609.8614198393318
0.011824959091632737      610.1915097456841
0.012026955383669057      610.5139178718973
0.012228431824642762      610.828644217971
0.01242964785142546       611.1356887839056
0.012630863908182311      611.4350515697008
0.012832340438962243      611.7267325753568
0.01303433688029038       612.0107318008734
0.013237110673121513      612.2870492462507
0.013439884439981065      612.5384932659858
0.013641880855631786      612.7699906350437
0.013843357360932049      612.9815413534238
0.014044573392309304      613.1731454211266
0.014245789393714157      613.344802838152
0.014447265809213447      613.4965136044998
0.014649262075581083      613.6282777201702
0.01485203563424549       613.7400951851631
0.015042635756515686      613.8299180365425
0.015232588937700405      613.9028289598918
0.015422109593635547      613.9588279552108
0.015611413609866287      613.9979150224998
0.015800717613118194      614.0200901617585
0.01599023823016135       614.025353372987
0.01618019134667368       614.0137046561853
0.016370791378709844      613.9851440113534
0.016531080055689654      613.9345126308455
0.01669098205584727       613.8798088897496
0.016850625763988217      613.8210327880656
0.017010140188576394      613.7581843257938
0.017169654651752998      613.6912635029338
0.017329298475565455      613.6202703194859
0.017489200668197463      613.5452047754501
0.01764948961399131       613.4660668708261
0.01780977395039525       613.3572108983552
0.017969673569674088      613.2361665342522
0.018129316344030533      613.1029337785172
0.01828883076335545       612.9575126311502
0.01844834562771156       612.7999030921511
0.01860798973608443       612.63010516152
0.018767891575146484      612.448118839257
0.018928179011779317      612.2539441253618
0.019118777792188433      611.9635037467042
0.019308729417401523      611.6505731898137
0.019498248522316707      611.3151524546903
0.019687551213036395      610.957241541334
0.019876854336831753      610.576840449745
0.02006637473948738       610.1739491799229
0.020256328522671414      609.7485677318682
0.020446930313975188      609.3006961055805
0.02064970389860279       608.7634158692592
0.02085170019064286       608.2130934239136
0.02105317663162028       607.6497287695433
0.02125439265840668       607.0733219061487
0.021455608715167235      606.4838728337296
0.02165708524595088       605.881381552286
0.021859081687282764      605.2658480618179
0.02206185548011769       604.6372723623253
0.022264629246980954      604.01196731175
0.022466625662635346      603.3992755878954
0.022668102167939252      602.7991971907613
0.022869318199320136      602.211732120348
0.023070534200728618      601.6368803766552
0.023272010616231548      601.0746419596832
0.023474006882602858      600.5250168694317
0.02367678044127098       599.9880051059009
0.02386738056353977       599.4698596031844
0.024057333744723106      598.987206348559
0.02424685440065687       598.5400453420245
0.024436158416886237      598.1283765835811
0.02462546242013677       597.7522000732288
0.024814983037178547      597.4115158109674
0.025004936153689494      597.1063237967971
0.025195536185724256      596.8366240307179
0.0253558248627017        596.6043814383444
0.025515726862856965      596.4025054275944
0.025675370570995573      596.2309959984681
0.02583488499558142       596.0898531509652
0.02599439945875569       595.9790768850859
0.02615404328256581       595.8986672008302
0.026313945475195465      595.848624098198
0.026474234420986946      595.8289475771894
0.026634518757392422      595.8337308676327
0.02679441837667279       595.8652850227692
0.026954061151030752      595.9236100425991
0.02711357557035719       596.0087059271222
0.027273090434714816      596.1205726763386
0.027432734543089202      596.2592102902483
0.027592636382152785      596.4246187688514
0.02775292381878715       596.6167981121476
0.02794352259919713       596.8556120465179
0.02813347422441108       597.1286772054724
0.028322993329327112      597.4359935890114
0.028512296020047647      597.7775611971349
0.02870159914384385       598.1533800298429
0.028891119546500334      598.5634500871353
0.02908107332968523       599.0077713690122
0.029271675120989875      599.4863438754735
0.02947444870561504       600.0114397666428
0.029676444997652693      600.5485845031554
0.02987792143862772       601.0977780850118
0.030079137465411736      601.6590205122116
0.030280353522169904      602.232311784755
0.030481830052951155      602.8176519026418
0.030683826494280624      603.4150408658722
0.030886600287113104      604.0244786744463
0.03108937405397396       604.6231196055139
0.03129137046962597       605.2158591986794
0.03149284697492751       605.8026974539422
0.03169406300630604       606.3836343713026
0.03189527900771217       606.9586699507605
0.03209675542321274       607.527804192316
0.03229875168958166       608.0910370959691
0.03250152524824737       608.6483686617197
0.03269212537051706       609.0955588878696
0.03288207855170127       609.5186832189399
0.033071599207635916      609.917741654931
0.033260903223866156      610.2927341958426
0.033450207227117564      610.6436608416748
0.033639727844160215      610.9705215924275
0.03382968096067204       611.2733164481009
0.034020280992707694      611.5520454086948
0.034180569669686675      611.7520291927781
0.03434047166984347       611.9391396765044
0.0345001153779836        612.1133768598737
0.03465962980257096       612.274740742886
0.03481914426574675       612.4232313255413
0.034978788089558385      612.5588486078396
0.03513869028218957       612.681592589781
0.035298979227982585      612.7914632713653
