% Model:              brazing.mph
% Version:            COMSOL 5.3.0.223
% Date:               Oct 19 2018, 23:35
% Table:              Table 3 - 
% Time (s)               Temperature (Cp_Al = 958.9, k_Al = 149.2, sigma_Al = 3.7181E7, rho_Al = 2771.8, Cp_inlet = 819.1, k_inlet = 145.9, sigma_inlet = 4.1218E7, rho_inlet = 2939.9, Cp_outlet = 936.3, k_outlet = 148.1, sigma_outlet = 3.9364E7, rho_outlet = 2951.9, Cp_outlet_sleeve = 943.2, k_outlet_sleeve = 145.7, sigma_outlet_sleeve = 3.8753E7, rho_outlet_sleeve = 2717.2, Cp_inlet_sleeve = 926.9, k_inlet_sleeve = 154.6, sigma_inlet_sleeve = 3.7224E7, rho_inlet_sleeve = 2752) (degC), Point: 60Temperature (Cp_Al = 958.9, k_Al = 149.2, sigma_Al = 3.7181E7, rho_Al = 2771.8, Cp_inlet = 819.1, k_inlet = 145.9, sigma_inlet = 4.1218E7, rho_inlet = 2939.9, Cp_outlet = 936.3, k_outlet = 148.1, sigma_outlet = 3.9364E7, rho_outlet = 2951.9, Cp_outlet_sleeve = 943.2, k_outlet_sleeve = 145.7, sigma_outlet_sleeve = 3.8753E7, rho_outlet_sleeve = 2717.2, Cp_inlet_sleeve = 926.9, k_inlet_sleeve = 154.6, sigma_inlet_sleeve = 3.7224E7, rho_inlet_sleeve = 2752) (degC), Point: 98Temperature (Cp_Al = 958.9, k_Al = 149.2, sigma_Al = 3.7181E7, rho_Al = 2771.8, Cp_inlet = 819.1, k_inlet = 145.9, sigma_inlet = 4.1218E7, rho_inlet = 2939.9, Cp_outlet = 936.3, k_outlet = 148.1, sigma_outlet = 3.9364E7, rho_outlet = 2951.9, Cp_outlet_sleeve = 943.2, k_outlet_sleeve = 145.7, sigma_outlet_sleeve = 3.8753E7, rho_outlet_sleeve = 2717.2, Cp_inlet_sleeve = 926.9, k_inlet_sleeve = 154.6, sigma_inlet_sleeve = 3.7224E7, rho_inlet_sleeve = 2752) (degC), Point: 134Temperature (Cp_Al = 958.9, k_Al = 149.2, sigma_Al = 3.7181E7, rho_Al = 2771.8, Cp_inlet = 819.1, k_inlet = 145.9, sigma_inlet = 4.1218E7, rho_inlet = 2939.9, Cp_outlet = 936.3, k_outlet = 148.1, sigma_outlet = 3.9364E7, rho_outlet = 2951.9, Cp_outlet_sleeve = 943.2, k_outlet_sleeve = 145.7, sigma_outlet_sleeve = 3.8753E7, rho_outlet_sleeve = 2717.2, Cp_inlet_sleeve = 926.9, k_inlet_sleeve = 154.6, sigma_inlet_sleeve = 3.7224E7, rho_inlet_sleeve = 2752) (degC), Point: 154Temperature (Cp_Al = 958.9, k_Al = 149.2, sigma_Al = 3.7181E7, rho_Al = 2771.8, Cp_inlet = 819.1, k_inlet = 145.9, sigma_inlet = 4.1218E7, rho_inlet = 2939.9, Cp_outlet = 936.3, k_outlet = 148.1, sigma_outlet = 3.9364E7, rho_outlet = 2951.9, Cp_outlet_sleeve = 943.2, k_outlet_sleeve = 145.7, sigma_outlet_sleeve = 3.8753E7, rho_outlet_sleeve = 2717.2, Cp_inlet_sleeve = 926.9, k_inlet_sleeve = 154.6, sigma_inlet_sleeve = 3.7224E7, rho_inlet_sleeve = 2752) (degC), Point: 172Temperature (Cp_Al = 958.9, k_Al = 149.2, sigma_Al = 3.7181E7, rho_Al = 2771.8, Cp_inlet = 819.1, k_inlet = 145.9, sigma_inlet = 4.1218E7, rho_inlet = 2939.9, Cp_outlet = 936.3, k_outlet = 148.1, sigma_outlet = 3.9364E7, rho_outlet = 2951.9, Cp_outlet_sleeve = 943.2, k_outlet_sleeve = 145.7, sigma_outlet_sleeve = 3.8753E7, rho_outlet_sleeve = 2717.2, Cp_inlet_sleeve = 926.9, k_inlet_sleeve = 154.6, sigma_inlet_sleeve = 3.7224E7, rho_inlet_sleeve = 2752) (degC), Point: 210Temperature (Cp_Al = 958.9, k_Al = 149.2, sigma_Al = 3.7181E7, rho_Al = 2771.8, Cp_inlet = 819.1, k_inlet = 145.9, sigma_inlet = 4.1218E7, rho_inlet = 2939.9, Cp_outlet = 936.3, k_outlet = 148.1, sigma_outlet = 3.9364E7, rho_outlet = 2951.9, Cp_outlet_sleeve = 943.2, k_outlet_sleeve = 145.7, sigma_outlet_sleeve = 3.8753E7, rho_outlet_sleeve = 2717.2, Cp_inlet_sleeve = 926.9, k_inlet_sleeve = 154.6, sigma_inlet_sleeve = 3.7224E7, rho_inlet_sleeve = 2752) (degC), Point: 232Temperature (Cp_Al = 958.9, k_Al = 149.2, sigma_Al = 3.7181E7, rho_Al = 2771.8, Cp_inlet = 819.1, k_inlet = 145.9, sigma_inlet = 4.1218E7, rho_inlet = 2939.9, Cp_outlet = 936.3, k_outlet = 148.1, sigma_outlet = 3.9364E7, rho_outlet = 2951.9, Cp_outlet_sleeve = 943.2, k_outlet_sleeve = 145.7, sigma_outlet_sleeve = 3.8753E7, rho_outlet_sleeve = 2717.2, Cp_inlet_sleeve = 926.9, k_inlet_sleeve = 154.6, sigma_inlet_sleeve = 3.7224E7, rho_inlet_sleeve = 2752) (degC), Point: 270
0                        21.130054653650404       21.107729448387374       21.024415562393585       21.00953785663728        21.011368836181475       21.001742807049425       21.118203297345246       21.142727316546882
3                        255.4048601873833        266.17301640140363       258.73433893249637       249.39312140107631       216.53987938789743       210.72147854518244       268.76776641845606       258.1019830670755
6                        380.09299912781296       395.0578881902828        387.52105703809445       378.1520092235396        340.4377654358967        334.2427008239581        397.4189602917713        380.61821914034954
9                        459.21003367367325       469.2338800425522        461.6375283089244        452.26072226220015       418.75719870784303       412.6673797175546        471.459919580171         458.2091422758825
12                       514.3949601653594        517.9734286275922        510.3390339466364        500.9598276696029        473.42966155984766       467.41401264621527       520.1146992997708        512.4261199731292
15                       556.6129871381834        554.3843481924607        546.7230941030515        537.3458302437184        515.3043480524979        509.36188657067623       556.4690295285444        554.0187047641276
18                       590.0714872166981        582.859161092065         575.1790454524435        565.8052997943776        548.5303064083852        542.6624109798687        584.9058800757074        587.0788833702838
21                       617.9207153581763        606.5215402815314        598.8278989325973        589.4580171162715        576.2173600846756        570.4219723068824        608.5420339812983        614.6710313095016
24                       642.0914118546274        627.1640221484375        619.4604864486754        610.0943648191651        600.2718281744558        594.5442758168202        629.1659472713675        638.6734802281952
27                       663.753382112358         645.8123498934132        638.1014587586224        628.7388473969413        621.8483655018413        616.1831087223388        647.8008938524755        660.2243098171439
