% Model:              brazing.mph
% Version:            COMSOL 5.3.0.223
% Date:               Oct 19 2018, 23:30
% Table:              Table 3 - 
% Time (s)               Temperature (Cp_Al = 846.3, k_Al = 171.9, sigma_Al = 3.9478E7, rho_Al = 2559.9, Cp_inlet = 820.3, k_inlet = 157.7, sigma_inlet = 3.8244E7, rho_inlet = 2653.8, Cp_outlet = 861.1, k_outlet = 155, sigma_outlet = 3.8947E7, rho_outlet = 2552.3, Cp_outlet_sleeve = 983.8, k_outlet_sleeve = 170, sigma_outlet_sleeve = 3.5744E7, rho_outlet_sleeve = 2807.7, Cp_inlet_sleeve = 906.3, k_inlet_sleeve = 152.3, sigma_inlet_sleeve = 3.8681E7, rho_inlet_sleeve = 2540.6) (degC), Point: 60Temperature (Cp_Al = 846.3, k_Al = 171.9, sigma_Al = 3.9478E7, rho_Al = 2559.9, Cp_inlet = 820.3, k_inlet = 157.7, sigma_inlet = 3.8244E7, rho_inlet = 2653.8, Cp_outlet = 861.1, k_outlet = 155, sigma_outlet = 3.8947E7, rho_outlet = 2552.3, Cp_outlet_sleeve = 983.8, k_outlet_sleeve = 170, sigma_outlet_sleeve = 3.5744E7, rho_outlet_sleeve = 2807.7, Cp_inlet_sleeve = 906.3, k_inlet_sleeve = 152.3, sigma_inlet_sleeve = 3.8681E7, rho_inlet_sleeve = 2540.6) (degC), Point: 98Temperature (Cp_Al = 846.3, k_Al = 171.9, sigma_Al = 3.9478E7, rho_Al = 2559.9, Cp_inlet = 820.3, k_inlet = 157.7, sigma_inlet = 3.8244E7, rho_inlet = 2653.8, Cp_outlet = 861.1, k_outlet = 155, sigma_outlet = 3.8947E7, rho_outlet = 2552.3, Cp_outlet_sleeve = 983.8, k_outlet_sleeve = 170, sigma_outlet_sleeve = 3.5744E7, rho_outlet_sleeve = 2807.7, Cp_inlet_sleeve = 906.3, k_inlet_sleeve = 152.3, sigma_inlet_sleeve = 3.8681E7, rho_inlet_sleeve = 2540.6) (degC), Point: 134Temperature (Cp_Al = 846.3, k_Al = 171.9, sigma_Al = 3.9478E7, rho_Al = 2559.9, Cp_inlet = 820.3, k_inlet = 157.7, sigma_inlet = 3.8244E7, rho_inlet = 2653.8, Cp_outlet = 861.1, k_outlet = 155, sigma_outlet = 3.8947E7, rho_outlet = 2552.3, Cp_outlet_sleeve = 983.8, k_outlet_sleeve = 170, sigma_outlet_sleeve = 3.5744E7, rho_outlet_sleeve = 2807.7, Cp_inlet_sleeve = 906.3, k_inlet_sleeve = 152.3, sigma_inlet_sleeve = 3.8681E7, rho_inlet_sleeve = 2540.6) (degC), Point: 154Temperature (Cp_Al = 846.3, k_Al = 171.9, sigma_Al = 3.9478E7, rho_Al = 2559.9, Cp_inlet = 820.3, k_inlet = 157.7, sigma_inlet = 3.8244E7, rho_inlet = 2653.8, Cp_outlet = 861.1, k_outlet = 155, sigma_outlet = 3.8947E7, rho_outlet = 2552.3, Cp_outlet_sleeve = 983.8, k_outlet_sleeve = 170, sigma_outlet_sleeve = 3.5744E7, rho_outlet_sleeve = 2807.7, Cp_inlet_sleeve = 906.3, k_inlet_sleeve = 152.3, sigma_inlet_sleeve = 3.8681E7, rho_inlet_sleeve = 2540.6) (degC), Point: 172Temperature (Cp_Al = 846.3, k_Al = 171.9, sigma_Al = 3.9478E7, rho_Al = 2559.9, Cp_inlet = 820.3, k_inlet = 157.7, sigma_inlet = 3.8244E7, rho_inlet = 2653.8, Cp_outlet = 861.1, k_outlet = 155, sigma_outlet = 3.8947E7, rho_outlet = 2552.3, Cp_outlet_sleeve = 983.8, k_outlet_sleeve = 170, sigma_outlet_sleeve = 3.5744E7, rho_outlet_sleeve = 2807.7, Cp_inlet_sleeve = 906.3, k_inlet_sleeve = 152.3, sigma_inlet_sleeve = 3.8681E7, rho_inlet_sleeve = 2540.6) (degC), Point: 210Temperature (Cp_Al = 846.3, k_Al = 171.9, sigma_Al = 3.9478E7, rho_Al = 2559.9, Cp_inlet = 820.3, k_inlet = 157.7, sigma_inlet = 3.8244E7, rho_inlet = 2653.8, Cp_outlet = 861.1, k_outlet = 155, sigma_outlet = 3.8947E7, rho_outlet = 2552.3, Cp_outlet_sleeve = 983.8, k_outlet_sleeve = 170, sigma_outlet_sleeve = 3.5744E7, rho_outlet_sleeve = 2807.7, Cp_inlet_sleeve = 906.3, k_inlet_sleeve = 152.3, sigma_inlet_sleeve = 3.8681E7, rho_inlet_sleeve = 2540.6) (degC), Point: 232Temperature (Cp_Al = 846.3, k_Al = 171.9, sigma_Al = 3.9478E7, rho_Al = 2559.9, Cp_inlet = 820.3, k_inlet = 157.7, sigma_inlet = 3.8244E7, rho_inlet = 2653.8, Cp_outlet = 861.1, k_outlet = 155, sigma_outlet = 3.8947E7, rho_outlet = 2552.3, Cp_outlet_sleeve = 983.8, k_outlet_sleeve = 170, sigma_outlet_sleeve = 3.5744E7, rho_outlet_sleeve = 2807.7, Cp_inlet_sleeve = 906.3, k_inlet_sleeve = 152.3, sigma_inlet_sleeve = 3.8681E7, rho_inlet_sleeve = 2540.6) (degC), Point: 270
0                        21.13132420655768        21.10800255116476        21.024506379384036       21.009536588218054       21.0115082668666         21.00176844087713        21.118490128598978       21.14414684457938
3                        262.70055783570774       279.51369125092776       272.1546819895351        263.2140093196763        225.724893232182         220.1008633623257        282.00099501783916       264.7223994020186
6                        383.73809696125886       407.42008133280297       399.9650331530337        391.01412341965886       345.7778931180476        340.03721255499204       409.69509999185595       383.52093231394485
9                        456.77848753160447       478.0360231970799        470.52963748411923       461.57738422138175       418.0692573243432        412.50507157380605       480.1987991144107        455.21366051039445
12                       506.4821459516444        523.9873976679921        516.4506259335915        507.50068029690397       467.3462178277422        461.89911611703826       526.0857091597799        504.1668821514095
15                       544.5271595687225        558.7335954067231        551.1770507439683        542.2309876774572        505.1261620395269        499.7776912829746        560.791734654102         541.7715554644652
18                       575.0554172753368        586.4748609803452        578.9056482448628        569.9637764308247        535.4894759951544        530.227546273127         588.508366972892         572.0511490618031
21                       601.0600424217292        610.1631086276631        602.5856233368762        593.6477538699252        561.3874350226073        556.2017084131163        612.1812512223364        597.915350180101
24                       624.2253335765547        631.3982924824182        623.8152916828951        614.8810942228127        584.4809413854787        579.3618966890117        633.4067141847306        621.0016423350609
27                       645.4876173319273        651.0455132635191        643.4587534921908        634.5278684176917        605.6929625279734        600.6320234545245        653.047707975193         642.2201055063389
