% Model:              brazing.mph
% Version:            COMSOL 5.3.0.223
% Date:               Oct 19 2018, 23:28
% Dimension:          1
% Nodes:              225
% Expressions:        1
% Description:        Line graph
% x                       Height
0                         658.9886500477822
2.02242572596226E-4       658.9802269221007
4.040113375593453E-4      658.912817092258
6.054635867748898E-4      658.786420558254
8.067573541103817E-4      658.601037320089
0.0010080510467017985     658.3566673777627
0.001209503071861434      658.0533107312752
0.0014112714639836859     657.6909673806266
0.001613513515825394      657.2696373258168
0.001815803045808458      656.885415797526
0.0020176184164428694     656.4577058326406
0.0022191170764546647     655.9865074311605
0.0024204572175778446     655.4718205930858
0.00262179740518867       654.9136453184165
0.002823296204553664      654.3119816071525
0.0030251118070788686     653.6668294592938
0.003227401660948015      652.9781888748406
0.0034297372965816655     652.306490296931
0.003631598594156443      651.6008843096117
0.0038331430353414214     650.8613709128831
0.004034528845142556      650.087950106745
0.004235914622467191      649.2806218911974
0.004437458966299354      648.4393862662403
0.004639320101874085      647.5642432318735
0.004841655511239337      646.6551927880975
0.005043918276497792      645.814743136606
0.005245706959792293      644.9639492573164
0.0054471789681153834     644.1028111502283
0.00564849245128538       643.2313288153421
0.005849805932728159      642.3495022526575
0.006051277935873691      641.4573314621749
0.00625306661055245       640.5548164438939
0.006455329363777148      639.6419571978147
0.0066576887471433525     638.7564523718338
0.0068595736811967985     637.8886508078579
0.007061141707903535      637.0385525058869
0.007262551112883539      636.2061574659207
0.007463960555734714      635.3914656879593
0.007665528695965537      634.5944771720032
0.00786741381892875       633.8151919180515
0.0080697734661485        633.0536099261051
0.008272395437950266      632.3639602163693
0.008474540847339949      631.6974809570038
0.008676367906616744      631.0541721480088
0.008878035577337231      630.4340337893841
0.009079703197965442      629.8370658811298
0.009281530107084053      629.2632684232458
0.00948367526660416       628.7126414157323
0.009686296889411194      628.1851848585889
0.009888748367913874      627.8388936435657
0.010090724718905934      627.5298567965403
0.010292383720552634      627.2580743175126
0.010493883896490891      627.0235462064828
0.010695384145210549      626.8262724634507
0.010897043365029401      626.6662530884164
0.011099020079070253      626.5434880813798
0.011301472064648224      626.4579774423411
0.011503924099142101      626.4653966139172
0.011705900863193036      626.511037130584
0.011907560133099505      626.5948989923413
0.012109060430962503      626.7169821991894
0.012310560654077738      626.8772867511279
0.012512219699917606      627.0758126481572
0.012714196091111104      627.3125598902769
0.012916647604829811      627.5875284774875
0.013119269382981878      627.9966482334398
0.013321414683399362      628.4361637579921
0.013523241722808088      628.9060750511444
0.013724909467002238      629.4063821128966
0.013926577258472442      629.9370849432488
0.014128404439597363      630.4981835422011
0.014330549975836581      631.0896779097533
0.01453317208336263       631.7115680459054
0.014735531766219815      632.3954040494295
0.014937416940401616      633.0921125909131
0.015138985143475461      633.8016936703561
0.015340394656791169      634.5241472877586
0.015541804135826716      635.2594734431207
0.015743372236141022      636.0076721364421
0.015945257239325793      636.7687433677231
0.01614761668334845       637.5426871369635
0.01634987940592303       638.415256743298
0.016551668047823844      639.2765670533768
0.016753140015983766      640.1266180672001
0.0169544534601584        640.9654097847678
0.017155766903708087      641.7929422060798
0.017357238869994664      642.6092153311364
0.017559027508778132      643.4142291599373
0.01776129022699866       644.2079836924829
0.017963625484858744      645.0267030543439
0.018165486461237414      645.8220379394772
0.018367030641941378      646.593988347883
0.018568416255992027      647.3425542795611
0.018769801906169285      648.0677357345116
0.018971346195167795      648.7695327127344
0.019173207351754082      649.4479452142298
0.019375542861313405      650.1029732389973
0.019577832661189145      650.7720629538724
0.019779648217873542      651.3931279725422
0.019981146975907166      651.9661682950069
0.020182487123025287      652.4911839212665
0.020383827220813066      652.9681748513209
0.020585325830972126      653.3971410851701
0.020787141141585735      653.7780826228143
0.020989430597769934      654.1109994642532
0.021191672662378012      654.5281514566611
0.021393441061935803      654.8859321110281
0.02159489309031221       655.1843414273538
0.021796186783028852      655.4233794056387
0.021997480548535182      655.6030460458825
0.022198932795108938      655.723341348085
0.022400701557758636      655.7842653122467
0.02260294412950465       655.7858179383672
0.02280539620920995       655.8259691530798
0.023007373018156245      655.8045316057762
0.02320903233274668       655.7215052964569
0.023410532675187733      655.5768902251217
0.023612032942881025      655.3706863917705
0.023813692033404853      655.1028937964035
0.024015668469493705      654.7735124390205
0.024218120028423832      654.3825423196216
0.024420742013481003      654.0043730962752
0.02462288751935683       653.5759627887105
0.02482471476325633       653.0973113969276
0.02502638271145666       652.5684189209264
0.025228050706933344      651.9892853607071
0.025429878092549915      651.3599107162693
0.025632023834248962      650.6802949876134
0.025834646148682177      649.9504381747392
0.026037006051731277      649.2142754946985
0.026238891444565628      648.4407023077985
0.02644045986526205       647.629718614039
0.026641869595683754      646.7813244134202
0.02684327929182417       645.895519705942
0.027044847609757647      644.9723044916044
0.02724673283158932       644.0116787704075
0.027449092495796006      643.0136425423511
0.02765135518998453       642.0347995093068
0.027853143803698084      641.0485028358439
0.028054615743803996      640.0547525219622
0.028255929159991804      639.0535485676619
0.028457242575555555      638.044890972943
0.028658714513790734      637.0287797378052
0.028860503124391312      636.005214862249
0.029062765814231884      634.9741963462739
0.029265100752448706      633.9487735573326
0.02946696141141544       632.9476146764947
0.029668505276199596      631.9707197037602
0.029869890575077548      631.0180886391291
0.03007127591008127       630.0897214826012
0.030272819883157453      629.1856182341769
0.03047468072232762       628.3057788938557
0.030677015912237836      627.4502034616381
0.030879305594778746      626.6629024582542
0.03108112103494649       625.9119082973817
0.031282619677010744      625.1972209790206
0.03148395970843373       624.518840503171
0.0316852996905265        623.8767668698327
0.031886798184716555      623.2710000790061
0.032088613378814135      622.7015401306908
0.03229090271766436       622.1683870248869
0.03249314477533616       621.8010655311298
0.03269491316800606       621.486047234566
0.03289636518952694       621.2233321351954
0.03309765887540427       621.0129202330183
0.033298952634071295      620.8548115280346
0.033500404873789524      620.7490060202442
0.03370217362955133       620.6955037096471
0.03390441619436107       620.6943045962433
0.03410686840969767       620.788524442592
0.03430884535332711       620.9353128588428
0.0345105048019665        621.1346698449959
0.034712005278138794      621.386595401051
0.03491350567956333       621.6910895270082
0.03511516490413611       622.0481522228678
0.035317141474908095      622.4577834886293
0.03551959316946952       622.9199833242932
0.035722216260139425      623.5120023901977
0.03592436286389621       624.1443496345637
0.036126191200505704      624.8170250573911
0.03632786023882611       625.5300286586798
0.03652952932442421       626.28336043843
0.036731357802754806      627.0770203966414
0.03693350464234149       627.9110085333143
0.03713612806239678       628.7853248484486
0.03733848789969145       629.7155724299138
0.037540373227224554      630.6657991985439
0.03774194158292153       631.6360051543387
0.03794335124849304       632.6261902972985
0.03814476087977932       633.6363546274231
0.03834632913270157       634.6664981447126
0.03854821428921239       635.7166208491667
0.038750573887637245      636.7867227407859
0.03895283596123875       637.914127043514
0.039154623958694366      639.0296760160969
0.039356095285438375      640.1333696585347
0.03955740808971597       641.2252079708272
0.03975872089337115       642.3051909529746
0.03996019221824938       643.3733186049768
0.04016198021260023       644.429590926834
0.04036424228186526       645.4740079185457
0.040566577948397485      646.5058242742431
0.040768439330593605      647.504893039328
0.04096998391520435       648.4712142138003
0.04117136993220262       649.4047877976599
0.04137275598532357       650.3056137909069
0.04157430067821714       651.1736921935415
0.04177616224060133       652.0090230055633
0.0419784981588055        652.8116062269728
0.04218078754816035       653.5947780709674
0.04238260269718259       654.3199892829402
0.04258410104946696       654.9872398628911
0.04278544079179545       655.5965298108201
0.04298678048479618       656.1478591267272
0.043188278689213704      656.6412278106126
0.043390093592177985      657.0766358624758
0.04359238263785921       657.4540832823172
0.043794623705544454      657.8709345698517
0.04399639111513442       658.2234914454286
0.04419784215819482       658.5117539090479
0.04439913486792596       658.7357219607098
0.044600427650446826      658.8953956004142
0.04480187891170468       658.9907748281612
0.045003646684386715      659.0218596439503
0.04520588825921017       658.9886500477822
