% Model:              brazing.mph
% Version:            COMSOL 5.3.0.223
% Date:               Oct 19 2018, 23:45
% Dimension:          1
% Nodes:              225
% Expressions:        1
% Description:        Line graph
% x                       Height
0                         646.6059236875531
2.02242572596226E-4       646.5979547130903
4.040113375593453E-4      646.5316366630599
6.054635867748898E-4      646.4069695374616
8.067573541103817E-4      646.2239533362954
0.0010080510467017985     645.9825880595614
0.001209503071861434      645.6828737072595
0.0014112714639836859     645.32481027939
0.001613513515825394      644.9083977759526
0.001815803045808458      644.52659200716
0.0020176184164428694     644.1017622257318
0.0022191170764546647     643.6339084316679
0.0024204572175778446     643.1230306249685
0.00262179740518867       642.5691288056333
0.002823296204553664      641.9722029736625
0.0030251118070788686     641.3322531290561
0.003227401660948015      640.649279271814
0.0034297372965816655     639.9823566925579
0.003631598594156443      639.2817996693153
0.0038331430353414214     638.5476082020864
0.004034528845142556      637.7797822908709
0.004235914622467191      636.978321935669
0.004437458966299354      636.1432271364807
0.004639320101874085      635.2744978933059
0.004841655511239337      634.3721342061447
0.005043918276497792      633.5354165508974
0.005245706959792293      632.6883980212485
0.0054471789681153834     631.8310786171982
0.00564849245128538       630.963458338746
0.005849805932728159      630.0855371858923
0.006051277935873691      629.1973151586371
0.00625306661055245       628.2987922569804
0.006455329363777148      627.3899684809221
0.0066576887471433525     626.5082629150961
0.0068595736811967985     625.6440503602796
0.007061141707903535      624.7973308164727
0.007262551112883539      623.9681042836754
0.007463960555734714      623.1563707618876
0.007665528695965537      622.3621302511095
0.00786741381892875       621.5853827513407
0.0080697734661485        620.8261282625816
0.008272395437950266      620.137451294174
0.008474540847339949      619.4720724382847
0.008676367906616744      618.829991694914
0.008878035577337231      618.2112090640618
0.009079703197965442      617.6157245457281
0.009281530107084053      617.0435381399129
0.00948367526660416       616.4946498466162
0.009686296889411194      615.969059665838
0.009888748367913874      615.6202746719378
0.010090724718905934      615.3087539075166
0.010292383720552634      615.0344973725744
0.010493883896490891      614.7975050671114
0.010695384145210549      614.5977769911274
0.010897043365029401      614.4353131446226
0.011099020079070253      614.3101135275967
0.011301472064648224      614.22217814005
0.011503924099142101      614.2261149251882
0.011705900863193036      614.268278836937
0.011907560133099505      614.3486698752965
0.012109060430962503      614.4672880402668
0.012310560654077738      614.6241333318477
0.012512219699917606      614.8192057500394
0.012714196091111104      615.0525052948417
0.012916647604829811      615.3240319662549
0.013119269382981878      615.7266634678467
0.013321414683399362      616.1596634321312
0.013523241722808088      616.6230318591083
0.013724909467002238      617.1167687487781
0.013926577258472442      617.6408741011405
0.014128404439597363      618.1953479161955
0.014330549975836581      618.7801901939431
0.01453317208336263       619.3954009343834
0.014735531766219815      620.0716822175826
0.014937416940401616      620.760930644979
0.015138985143475461      621.4631462165723
0.015340394656791169      622.1783289323628
0.015541804135826716      622.9064787923502
0.015743372236141022      623.6475957965347
0.015945257239325793      624.4016799449162
0.01614761668334845       625.1687312374947
0.01634987940592303       626.0313343845764
0.016551668047823844      626.8828097589833
0.016753140015983766      627.7231573607153
0.0169544534601584        628.5523771897725
0.017155766903708087      629.3704692461549
0.017357238869994664      630.1774335298627
0.017559027508778132      630.9732700408955
0.01776129022699866       631.7579787792537
0.017963625484858744      632.5673770336964
0.018165486461237414      633.3534521988801
0.018367030641941378      634.1162042748044
0.018568416255992027      634.8556332614698
0.018769801906169285      635.5717391588762
0.018971346195167795      636.2645219670233
0.019173207351754082      636.9339816859114
0.019375542861313405      637.5801183155403
0.019577832661189145      638.2400317276795
0.019779648217873542      638.852458723271
0.019981146975907166      639.4173993023146
0.020182487123025287      639.9348534648104
0.020383827220813066      640.4048212107584
0.020585325830972126      640.8273025401586
0.020787141141585735      641.2022974530109
0.020989430597769934      641.5298059493157
0.021191672662378012      641.9386409510032
0.021393441061935803      642.2889935994859
0.02159489309031221       642.5808638947636
0.021796186783028852      642.8142518368365
0.021997480548535182      642.9891574257045
0.022198932795108938      643.1055806613678
0.022400701557758636      643.1635215438259
0.02260294412950465       643.1629800730793
0.02280539620920995       643.2013592860867
0.023007373018156245      643.1790293321985
0.02320903233274668       643.0959902114148
0.023410532675187733      642.9522419237355
0.023612032942881025      642.7477844691607
0.023813692033404853      642.4826178476903
0.024015668469493705      642.1567420593245
0.024218120028423832      641.7701571040632
0.024420742013481003      641.393817305987
0.02462288751935683       640.9677481712953
0.02482471476325633       640.491949699988
0.02502638271145666       639.9664218920651
0.025228050706933344      639.3911647475265
0.025429878092549915      638.7661782663725
0.025632023834248962      638.0914624486028
0.025834646148682177      637.3670172942176
0.026037006051731277      636.6353414250401
0.026238891444565628      635.8666034211425
0.02644045986526205       635.0608032825247
0.026641869595683754      634.2179410091869
0.02684327929182417       633.338016601129
0.027044847609757647      632.421030058351
0.02724673283158932       631.4669813808529
0.027449092495796006      630.4758705686346
0.02765135518998453       629.5012357544358
0.027853143803698084      628.519335693364
0.028054615743803996      627.530170385419
0.028255929159991804      626.5337398306008
0.028457242575555555      625.5300440289095
0.028658714513790734      624.5190829803452
0.028860503124391312      623.5008566849076
0.029062765814231884      622.475365142597
0.029265100752448706      621.4553189505918
0.02946696141141544       620.4595540414582
0.029668505276199596      619.4880704151959
0.029869890575077548      618.540868071805
0.03007127591008127       617.6179470112855
0.030272819883157453      616.7193072336374
0.03047468072232762       615.8449487388607
0.030677015912237836      614.9948715269553
0.030879305594778746      614.2117523672979
0.03108112103494649       613.4653571878713
0.031282619677010744      612.7556859886753
0.03148395970843373       612.0827387697101
0.0316852996905265        611.4465155309755
0.031886798184716555      610.8470162724717
0.032088613378814135      610.2842409941986
0.03229090271766436       609.7581896961561
0.03249314477533616       609.3931663227614
0.03269491316800606       609.0807031917246
0.03289636518952694       608.8208003030458
0.03309765887540427       608.6134576567246
0.033298952634071295      608.4586752527613
0.033500404873789524      608.3564530911557
0.03370217362955133       608.306791171908
0.03390441619436107       608.3096894950182
0.03410686840969767       608.4069248664807
0.03430884535332711       608.5569457821493
0.0345105048019665        608.7597522420242
0.034712005278138794      609.0153442461051
0.03491350567956333       609.3237217943922
0.03511516490413611       609.6848848868852
0.035317141474908095      610.0988335235846
0.03551959316946952       610.56556770449
0.035722216260139425      611.1587554031341
0.03592436286389621       611.7923796799398
0.036126191200505704      612.4664405349072
0.03632786023882611       613.1809379680362
0.03652952932442421       613.935871979327
0.036731357802754806      614.7312425687793
0.03693350464234149       615.5670497363933
0.03713612806239678       616.4432934821691
0.03733848789969145       617.3743627179738
0.037540373227224554      618.3255153261183
0.03774194158292153       619.2967513066027
0.03794335124849304       620.2880706594268
0.03814476087977932       621.2994733845909
0.03834632913270157       622.3309594820946
0.03854821428921239       623.3825289519383
0.038750573887637245      624.4541817941218
0.03895283596123875       625.5801982184677
0.039154623958694366      626.6944545233586
0.039356095285438375      627.7969507087946
0.03955740808971597       628.8876867747758
0.03975872089337115       629.966662721302
0.03996019221824938       631.0338785483733
0.04016198021260023       632.0893342559898
0.04036424228186526       633.1330298441513
0.040566577948397485      634.1636646397825
0.040768439330593605      635.161458454764
0.04096998391520435       636.1264112890959
0.04117136993220262       637.0585231427784
0.04137275598532357       637.9577940158114
0.04157430067821714       638.8242239081948
0.04177616224060133       639.6578128199285
0.0419784981588055        640.4585607510129
0.04218078754816035       641.2389861996957
0.04238260269718259       641.9617483005534
0.04258410104946696       642.626847053586
0.04278544079179545       643.2342824587936
0.04298678048479618       643.7840545161761
0.043188278689213704      644.2761632257334
0.043390093592177985      644.7106085874658
0.04359238263785921       645.0873906013729
0.043794623705544454      645.4999075908668
0.04399639111513442       645.8487959078689
0.04419784215819482       646.1340555523791
0.04439913486792596       646.3556865243975
0.044600427650446826      646.513688823924
0.04480187891170468       646.608062450959
0.045003646684386715      646.6388074055018
0.04520588825921017       646.6059236875531
