% Model:              brazing.mph
% Version:            COMSOL 5.3.0.223
% Date:               Oct 19 2018, 23:12
% Dimension:          1
% Nodes:              225
% Expressions:        1
% Description:        Line graph
% x                       Height
0                         619.5173385808079
2.02242572596226E-4       619.5093600458671
4.040113375593453E-4      619.4438986835403
6.054635867748898E-4      619.3209544938276
8.067573541103817E-4      619.1405274767288
0.0010080510467017985     618.9026176322441
0.001209503071861434      618.6072249603733
0.0014112714639836859     618.2543494611166
0.001613513515825394      617.8439911344738
0.001815803045808458      617.4731330401543
0.0020176184164428694     617.0599166706434
0.0022191170764546647     616.6043420259412
0.0024204572175778446     616.1064091060475
0.00262179740518867       615.5661179109626
0.002823296204553664      614.9834684406862
0.0030251118070788686     614.3584606952185
0.003227401660948015      613.6910946745594
0.0034297372965816655     613.0423123433262
0.003631598594156443      612.3602745328611
0.0038331430353414214     611.6449812431642
0.004034528845142556      610.8964324742356
0.004235914622467191      610.114628226075
0.004437458966299354      609.2995684986826
0.004639320101874085      608.4512532920581
0.004841655511239337      607.569682606202
0.005043918276497792      606.7570420083471
0.005245706959792293      605.9339507886211
0.0054471789681153834     605.1004089470243
0.00564849245128538       604.2564164835567
0.005849805932728159      603.4019733982183
0.006051277935873691      602.5370796910088
0.00625306661055245       601.6617353619285
0.006455329363777148      600.7759404109775
0.0066576887471433525     599.9169252772739
0.0068595736811967985     599.0747161885006
0.007061141707903535      598.2493131446574
0.007262551112883539      597.4407161457444
0.007463960555734714      596.6489251917617
0.007665528695965537      595.8739402827091
0.00786741381892875       595.1157614185865
0.0080697734661485        594.3743885993943
0.008272395437950266      593.7043004061081
0.008474540847339949      593.055978995802
0.008676367906616744      592.4294243684758
0.008878035577337231      591.8246365241295
0.009079703197965442      591.2416154627631
0.009281530107084053      590.6803611843766
0.00948367526660416       590.14087368897
0.009686296889411194      589.6231529765433
0.009888748367913874      589.2840480432831
0.010090724718905934      588.9805364415286
0.010292383720552634      588.7126181712799
0.010493883896490891      588.4802932325371
0.010695384145210549      588.2835616253001
0.010897043365029401      588.1224233495687
0.011099020079070253      587.9968784053433
0.011301472064648224      587.9069267926237
0.011503924099142101      587.9081599245969
0.011705900863193036      587.9460050927754
0.011907560133099505      588.0204622971592
0.012109060430962503      588.1315315377481
0.012310560654077738      588.2792128145422
0.012512219699917606      588.4635061275416
0.012714196091111104      588.6844114767463
0.012916647604829811      588.941928862156
0.013119269382981878      589.3311631151792
0.013321414683399362      589.7494923467183
0.013523241722808088      590.1969165567737
0.013724909467002238      590.6734357453452
0.013926577258472442      591.1790499124327
0.014128404439597363      591.7137590580364
0.014330549975836581      592.2775631821562
0.01453317208336263       592.8704622847922
0.014735531766219815      593.5243732806457
0.014937416940401616      594.1904985813964
0.015138985143475461      594.868838187044
0.015340394656791169      595.5593920975889
0.015541804135826716      596.2621603130308
0.015743372236141022      596.9771428333698
0.015945257239325793      597.704339658606
0.01614761668334845       598.4437507887393
0.01634987940592303       599.2809144752089
0.016551668047823844      600.1069409779172
0.016753140015983766      600.9218302968644
0.0169544534601584        601.7255824320504
0.017155766903708087      602.5181973834751
0.017357238869994664      603.2996751511388
0.017559027508778132      604.0700157350411
0.01776129022699866       604.8292191351824
0.017963625484858744      605.6138738856376
0.018165486461237414      606.3758868469946
0.018367030641941378      607.1152580192531
0.018568416255992027      607.8319874024133
0.018769801906169285      608.5260749964752
0.018971346195167795      609.1975208014386
0.019173207351754082      609.8463248173039
0.019375542861313405      610.4724870440705
0.019577832661189145      611.1160484606512
0.019779648217873542      611.712718508216
0.019981146975907166      612.2624971867648
0.020182487123025287      612.7653844962978
0.020383827220813066      613.2213804368148
0.020585325830972126      613.6304850083159
0.020787141141585735      613.992698210801
0.020989430597769934      614.3080200442704
0.021191672662378012      614.7122691849446
0.021393441061935803      615.0588919127342
0.02159489309031221       615.3478882276393
0.021796186783028852      615.5792581296597
0.021997480548535182      615.7530016187956
0.022198932795108938      615.8691186950467
0.022400701557758636      615.9276093584134
0.02260294412950465       615.9284736088953
0.02280539620920995       615.9713980215797
0.023007373018156245      615.9546115933772
0.02320903233274668       615.8781143242876
0.023410532675187733      615.7419062143111
0.023612032942881025      615.5459872634477
0.023813692033404853      615.2903574716973
0.024015668469493705      614.9750168390601
0.024218120028423832      614.5999653655358
0.024420742013481003      614.2407011768644
0.02462288751935683       613.8327645170732
0.02482471476325633       613.3761553861619
0.02502638271145666       612.8708737841308
0.025228050706933344      612.3169197109798
0.025429878092549915      611.7142931667089
0.025632023834248962      611.062994151318
0.025834646148682177      610.3630226648072
0.026037006051731277      609.6589731239208
0.026238891444565628      608.9185486364696
0.02644045986526205       608.141749202454
0.026641869595683754      607.3285748218738
0.02684327929182417       606.479025494729
0.027044847609757647      605.5931012210195
0.02724673283158932       604.6708020007454
0.027449092495796006      603.7121278339068
0.02765135518998453       602.7740530739269
0.027853143803698084      601.8286308149222
0.028054615743803996      600.8758610568929
0.028255929159991804      599.9157437998389
0.028457242575555555      598.9482790437603
0.028658714513790734      597.9734667886568
0.028860503124391312      596.9913070345287
0.029062765814231884      596.001799781376
0.029265100752448706      595.0174623933603
0.02946696141141544       594.0565344437953
0.029668505276199596      593.1190159326809
0.029869890575077548      592.204906860017
0.03007127591008127       591.3142072258037
0.030272819883157453      590.4469170300409
0.03047468072232762       589.6030362727287
0.030677015912237836      588.7825649538672
0.030879305594778746      588.0296495461735
0.03108112103494649       587.3114858051612
0.031282619677010744      586.6280737308306
0.03148395970843373       585.9794133231813
0.0316852996905265        585.3655045822137
0.031886798184716555      584.7863475079276
0.032088613378814135      584.2419421003231
0.03229090271766436       583.7322883594001
0.03249314477533616       583.3855063522581
0.03269491316800606       583.0890569725908
0.03289636518952694       582.8429402203985
0.03309765887540427       582.6471560956808
0.033298952634071295      582.5017045984379
0.033500404873789524      582.4065857286697
0.03370217362955133       582.3617994863764
0.03390441619436107       582.3673458715579
0.03410686840969767       582.4660539949035
0.03430884535332711       582.6153446524662
0.0345105048019665        582.8152178442463
0.034712005278138794      583.0656735702433
0.03491350567956333       583.3667118304576
0.03511516490413611       583.7183326248891
0.035317141474908095      584.1205359535377
0.03551959316946952       584.5733218164034
0.035722216260139425      585.1529522175224
0.03592436286389621       585.771249433388
0.036126191200505704      586.4282134640004
0.03632786023882611       587.1238443093592
0.03652952932442421       587.8581419694649
0.036731357802754806      588.6311064443172
0.03693350464234149       589.4427377339161
0.03713612806239678       590.2930358382619
0.03733848789969145       591.1978928066046
0.037540373227224554      592.1217465958638
0.03774194158292153       593.0645972060391
0.03794335124849304       594.0264446371309
0.03814476087977932       595.007288889139
0.03834632913270157       596.0071299620633
0.03854821428921239       597.0259678559039
0.038750573887637245      598.063802570661
0.03895283596123875       599.1582383169089
0.039154623958694366      600.2407468425246
0.039356095285438375      601.3113281475082
0.03955740808971597       602.3699822318596
0.03975872089337115       603.4167090955788
0.03996019221824938       604.4515087386659
0.04016198021260023       605.4743811611207
0.04036424228186526       606.4853263629435
0.040566577948397485      607.4840618883679
0.040768439330593605      608.4507528998529
0.04096998391520435       609.3853993973983
0.04117136993220262       610.288001381004
0.04137275598532357       611.1585588506703
0.04157430067821714       611.997071806397
0.04177616224060133       612.8035402481843
0.0419784981588055        613.5779641760319
0.04218078754816035       614.3358379753377
0.04238260269718259       615.0368540750733
0.04258410104946696       615.6810124752388
0.04278544079179545       616.2683131758344
0.04298678048479618       616.7987561768597
0.043188278689213704      617.2723414783152
0.043390093592177985      617.6890690802004
0.04359238263785921       618.0489389825157
0.043794623705544454      618.4518943176065
0.04399639111513442       618.7921623997532
0.04419784215819482       619.0697432289558
0.04439913486792596       619.2846368052144
0.044600427650446826      619.436843128529
0.04480187891170468       619.5263621988993
0.045003646684386715      619.5531940163256
0.04520588825921017       619.5173385808079
