% Model:              brazing.mph
% Version:            COMSOL 5.3.0.223
% Date:               Oct 19 2018, 23:41
% Dimension:          1
% Nodes:              225
% Expressions:        1
% Description:        Line graph
% x                       Height
0                         632.8463023588033
2.02242572596226E-4       632.8410878071775
4.040113375593453E-4      632.776094977964
6.054635867748898E-4      632.6513238711628
8.067573541103817E-4      632.4667744867742
0.0010080510467017985     632.2224468247978
0.001209503071861434      631.9183408852339
0.0014112714639836859     631.5544566680821
0.001613513515825394      631.130794173343
0.001815803045808458      630.7573954917041
0.0020176184164428694     630.3399940262617
0.0022191170764546647     629.8785897770158
0.0024204572175778446     629.3731827439666
0.00262179740518867       628.8237729271139
0.002823296204553664      628.2303603264578
0.0030251118070788686     627.5929449419981
0.003227401660948015      626.9115267737352
0.0034297372965816655     626.2515953425388
0.003631598594156443      625.5566847249503
0.0038331430353414214     624.8267949209697
0.004034528845142556      624.061925930597
0.004235914622467191      623.2620777538322
0.004437458966299354      622.4272503906752
0.004639320101874085      621.5574438411261
0.004841655511239337      620.652658105185
0.005043918276497792      619.8301495730535
0.005245706959792293      618.9959577286867
0.0054471789681153834     618.1500825720847
0.00564849245128538       617.2925241032473
0.005849805932728159      616.4232823221746
0.006051277935873691      615.5423572288665
0.00625306661055245       614.6497488233232
0.006455329363777148      613.7454571055447
0.0066576887471433525     612.869073551932
0.0068595736811967985     612.0097583340081
0.007061141707903535      611.1675114517728
0.007262551112883539      610.3423329052264
0.007463960555734714      609.5342226943685
0.007665528695965537      608.7431808191994
0.00786741381892875       607.969207279719
0.0080697734661485        607.2123020759273
0.008272395437950266      606.5329982704505
0.008474540847339949      605.874423542355
0.008676367906616744      605.2365778916409
0.008878035577337231      604.6194613183078
0.009079703197965442      604.0230738223561
0.009281530107084053      603.4474154037856
0.00948367526660416       602.8924860625963
0.009686296889411194      602.3582857987883
0.009888748367913874      602.0205816393386
0.010090724718905934      601.7180753375396
0.010292383720552634      601.4507668933917
0.010493883896490891      601.2186563068946
0.010695384145210549      601.0217435780482
0.010897043365029401      600.8600287068529
0.011099020079070253      600.7335116933082
0.011301472064648224      600.6421925374145
0.011503924099142101      600.6483260611055
0.011705900863193036      600.6907919736399
0.011907560133099505      600.7695902750175
0.012109060430962503      600.8847209652386
0.012310560654077738      601.0361840443029
0.012512219699917606      601.2239795122105
0.012714196091111104      601.4481073689616
0.012916647604829811      601.7085676145558
0.013119269382981878      602.1125661548732
0.013321414683399362      602.545441093529
0.013523241722808088      603.0071924305231
0.013724909467002238      603.4978201658556
0.013926577258472442      604.0173242995265
0.014128404439597363      604.5657048315358
0.014330549975836581      605.1429617618834
0.01453317208336263       605.7490950905693
0.014735531766219815      606.4209086900571
0.014937416940401616      607.1040514587464
0.015138985143475461      607.7985233966374
0.015340394656791169      608.50432450373
0.015541804135826716      609.2214547800243
0.015743372236141022      609.9499142255202
0.015945257239325793      610.6897028402177
0.01614761668334845       611.4408206241168
0.01634987940592303       612.3031659592698
0.016551668047823844      613.1531136680853
0.016753140015983766      613.9906637505632
0.0169544534601584        614.8158162067034
0.017155766903708087      615.6285710365061
0.017357238869994664      616.4289282399712
0.017559027508778132      617.2168878170987
0.01776129022699866       617.9924497678887
0.017963625484858744      618.7942483543646
0.018165486461237414      619.5727625470299
0.018367030641941378      620.3279923458846
0.018568416255992027      621.0599377509284
0.018769801906169285      621.7685987621616
0.018971346195167795      622.4539753795841
0.019173207351754082      623.1160676031959
0.019375542861313405      623.7548754329971
0.019577832661189145      624.4154558847367
0.019779648217873542      625.0264983186328
0.019981146975907166      625.5880027346851
0.020182487123025287      626.099969132894
0.020383827220813066      626.5623975132592
0.020585325830972126      626.9752878757807
0.020787141141585735      627.3386402204586
0.020989430597769934      627.652454547293
0.021191672662378012      628.0721466776861
0.021393441061935803      628.4317331708916
0.02159489309031221       628.7312140269094
0.021796186783028852      628.9705892457395
0.021997480548535182      629.1498588273819
0.022198932795108938      629.2690227718368
0.022400701557758636      629.3280810791038
0.02260294412950465       629.3270337491833
0.02280539620920995       629.37276534543
0.023007373018156245      629.3562999848546
0.02320903233274668       629.2776376674569
0.023410532675187733      629.136778393237
0.023612032942881025      628.933722162195
0.023813692033404853      628.6684689743306
0.024015668469493705      628.3410188296441
0.024218120028423832      627.9513717281354
0.024420742013481003      627.5877629569767
0.02462288751935683       627.1734910326293
0.02482471476325633       626.708555955093
0.02502638271145666       626.1929577243678
0.025228050706933344      625.6266963404539
0.025429878092549915      625.0097718033512
0.025632023834248962      624.3421841130597
0.025834646148682177      623.6239332695793
0.026037006051731277      622.9043336557271
0.026238891444565628      622.1466309126965
0.02644045986526205       621.3508250404875
0.026641869595683754      620.5169160391001
0.02684327929182417       619.6449039085343
0.027044847609757647      618.7347886487901
0.02724673283158932       617.7865702598673
0.027449092495796006      616.8002487417663
0.02765135518998453       615.8443548547892
0.027853143803698084      614.8800786376313
0.028054615743803996      613.907420090292
0.028255929159991804      612.926379212772
0.028457242575555555      611.9369560050708
0.028658714513790734      610.9391504671886
0.028860503124391312      609.9329625991253
0.029062765814231884      608.918392400881
0.029265100752448706      607.9088992644394
0.02946696141141544       606.9232154093498
0.029668505276199596      605.9613408356124
0.029869890575077548      605.0232755432271
0.03007127591008127       604.1090195321939
0.030272819883157453      603.2185728025128
0.03047468072232762       602.3519353541838
0.030677015912237836      601.5091071872068
0.030879305594778746      600.7398742482881
0.03108112103494649       600.0047930058945
0.031282619677010744      599.303863460026
0.03148395970843373       598.6370856106828
0.0316852996905265        598.0044594578648
0.031886798184716555      597.4059850015718
0.032088613378814135      596.8416622418042
0.03229090271766436       596.3114911785616
0.03249314477533616       595.9607615845417
0.03269491316800606       595.6604425107874
0.03289636518952694       595.4105339572991
0.03309765887540427       595.2110359240762
0.033298952634071295      595.0619484111191
0.033500404873789524      594.9632714184278
0.03370217362955133       594.915004946002
0.03390441619436107       594.9171489938419
0.03410686840969767       595.0186551584488
0.03430884535332711       595.1709170870885
0.0345105048019665        595.3739347797607
0.034712005278138794      595.6277082364657
0.03491350567956333       595.9322374572033
0.03511516490413611       596.2875224419736
0.035317141474908095      596.6935631907767
0.03551959316946952       597.1503597036124
0.035722216260139425      597.745299787155
0.03592436286389621       598.3789925591874
0.036126191200505704      599.0514380197095
0.03632786023882611       599.7626361687215
0.03652952932442421       600.5125870062233
0.036731357802754806      601.3012905322148
0.03693350464234149       602.1287467466962
0.03713612806239678       602.9949556496672
0.03733848789969145       603.920430133355
0.037540373227224554      604.8645941905752
0.03774194158292153       605.8274478213275
0.03794335124849304       606.8089910256122
0.03814476087977932       607.8092238034291
0.03834632913270157       608.8281461547782
0.03854821428921239       609.8657580796596
0.038750573887637245      610.9220595780733
0.03895283596123875       612.0446826571782
0.039154623958694366      613.1543666624838
0.039356095285438375      614.2511115939899
0.03955740808971597       615.3349174516967
0.03975872089337115       616.4057842356042
0.03996019221824938       617.4637119457124
0.04016198021260023       618.508700582021
0.04036424228186526       619.5407501445304
0.040566577948397485      620.5601851538037
0.040768439330593605      621.5467896014216
0.04096998391520435       622.500563487384
0.04117136993220262       623.4215068116911
0.04137275598532357       624.3096195743427
0.04157430067821714       625.1649017753389
0.04177616224060133       625.9873534146797
0.0419784981588055        626.7769744923651
0.04218078754816035       627.5541521827906
0.04238260269718259       628.2716738655308
0.04258410104946696       628.9295395405858
0.04278544079179545       629.5277492079554
0.04298678048479618       630.0663028676396
0.043188278689213704      630.5452005196385
0.043390093592177985      630.964442163952
0.04359238263785921       631.3240278005801
0.043794623705544454      631.7423807322132
0.04399639111513442       632.0955712033164
0.04419784215819482       632.3835992138893
0.04439913486792596       632.6064647639322
0.044600427650446826      632.7641678534451
0.04480187891170468       632.8567084824278
0.045003646684386715      632.8840866508807
0.04520588825921017       632.8463023588033
