% Model:              brazing.mph
% Version:            COMSOL 5.3.0.223
% Date:               Oct 19 2018, 23:28
% Dimension:          1
% Nodes:              161
% Expressions:        1
% Description:        Line graph
% x                       Height
0                         666.7688864461987
1.9693985890610136E-4     666.7513404224114
3.9298030043864816E-4     666.7421961963515
5.884188308682271E-4      666.7414537680193
7.835557095112735E-4      666.7491131374145
9.786925881542028E-4      666.7651743045373
0.0011741311185834375     666.7896372693875
0.0013701715601154056     666.8225020319653
0.0015671114190207022     666.8637685922706
0.0017642608961497635     666.6224280633834
0.0019605081241513326     666.3765553571801
0.0021561515411346144     666.1261504736609
0.002351492352702621      665.8712134128253
0.0025468331642698894     665.6117441746737
0.0027424765812509564     665.347742759206
0.0029387238092488436     665.0792091664222
0.0031358732863727766     664.8061433963222
0.0033326885608882563     664.4246189296435
0.0035286060983021257     664.0484090759822
0.0037239228519497995     663.6775138353383
0.003918938519653848      663.3119332077116
0.004113954187357973      662.9516671931021
0.004309270941005876      662.5967157915101
0.004505188478420127      662.2470790029354
0.004702003752936137      661.9027568273779
0.004899138702461749      661.5404632124381
0.005095371599302965      661.1960187287716
0.005291000816927052      660.8694233763783
0.005486327495291825      660.5606771552584
0.005681654173656831      660.2697800654117
0.0058772833912816074     659.9967321068385
0.0060735162881239745     659.7415332795384
0.006270651237651189      659.5041835835117
0.006467582778148322      659.3176637262368
0.006663615013526554      659.1657653295839
0.006859045413116663      659.0484883935532
0.0070541741987231454     658.9658329181445
0.007249302984329781      658.9177989033581
0.007444733383920351      658.9043863491937
0.007640765619299351      658.9255952556513
0.007837697159797551      658.9814256227311
0.008034634474091872      658.983378197151
0.008230672405352359      659.0237051062388
0.008426108448549354      659.1024063499947
0.008621242851524007      659.2194819284185
0.008816377254498534      659.3749318415103
0.009011813297695145      659.56875608927
0.009207851228955002      659.8009546716977
0.00940478854324844       660.0715275887933
0.00960192671152544       660.398367535759
0.00979816278359587       660.7413395194357
0.009993795147248338      661.1004435398236
0.010189124956984269      661.4756795969224
0.010384454766719743      661.8670476907323
0.010580087130370853      662.2745478212533
0.010776323202439026      662.6981799884853
0.01097346137071288       663.1379441924283
0.011170281912174305      663.5293407077063
0.011366204645540166      663.9306143431263
0.011561526547508357      664.341765098688
0.011756547339625332      664.7627929743917
0.011951568131742307      665.1936979702372
0.0121468900337105        665.6344800862246
0.012342812767076368      666.0851393223537
0.0125396333085378        666.5456756786248
0.012736771215691979      666.8457787115061
0.012933007030171178      667.1435453599981
0.013128639138602195      667.4389756241013
0.013323968694306592      667.7320695038154
0.013519298250011432      668.0228269991405
0.013714930358443784      668.3112481100765
0.0139111661729252        668.5973328366234
0.014108304080082462      668.8810811787814
0.014305241249097643      668.8785370459159
0.014501279037039759      668.8767078098773
0.014696714938233999      668.8755934706658
0.014891849199866372      668.8751940282808
0.015086983461498874      668.8755094827228
0.015282419362693495      668.8765398339917
0.01547845715063625       668.8782850820876
0.015675394319652317      668.8807452270103
0.015872325504405583      668.4989311370981
0.01606835738884011       668.119460649421
0.016263787440706973      667.7423337639785
0.016458915880206496      667.3675504807708
0.016654044319705866      666.9951107997978
0.016849474371572262      666.6250147210598
0.017045506256006017      666.2572622445564
0.017242437440758204      665.8918533702878
0.01743957168037589       665.3008585435183
0.017635803876907424      664.6994870459861
0.01783143240066149       664.0877388776906
0.018026758388388308      663.4656140386323
0.01822208437611492       662.833112528811
0.01841771289986836       662.1902343482267
0.018613945096398854      661.5369794968793
0.018811079336015085      660.873347974769
0.019007894687321662      660.1683957257399
0.01920381230049143       659.466396432074
0.019399129129200405      658.7673500937715
0.01959414487161704       658.071256710832
0.01978916061403359       657.3781162832558
0.01998447744274231       656.6879288110429
0.020180395055911654      656.0006942941932
0.020377210407217645      655.3164127327066
0.020574360469106157      654.6940427275537
0.020770608273960874      654.0947257080153
0.020966252262493188      653.5184616740921
0.021161593642948652      652.9652506257837
0.021356935023404883      652.4350925630902
0.021552579011939476      651.9279874860115
0.021748826816797996      651.4439353945477
0.021945976878691802      650.9829362886987
0.022142917141692885      650.6231992641237
0.022338957981867254      650.3098920100099
0.022534396907280062      650.0430145263574
0.02272953417907009       649.8225668131662
0.02292467145086023       649.6485488704362
0.02312011037627338       649.5209606981675
0.02331615121644832       649.4398022963601
0.023513091479450195      649.4050736650139
0.023710025135207962      649.3355763758032
0.02390605945730262       649.3175565940609
0.024101491924457957      649.3510143197874
0.024296622768016963      649.4359495529824
0.024491753611575823      649.572362293646
0.02468718607873073       649.7602525417781
0.024883220400824673      649.9996202973789
0.025080154056581445      650.2904655604483
0.025277299572591536      650.6898419671908
0.025473542893039384      651.112859461322
0.02566918243840792       651.5595180428421
0.025864519396400307      652.0298177117509
0.026059856354392216      652.5237584680485
0.026255495899759323      653.0413403117349
0.026451739220204794      653.5825632428101
0.026648884736211575      654.1474272612742
0.02684569473774919       654.7594829325976
0.027041607073256636      655.3779226710783
0.027236918672681274      656.0027464767165
0.027431929210095855      656.6339543495121
0.027626939747510428      657.2715462894652
0.027822251346935042      657.9155222965754
0.028018163682442445      658.5658823708432
0.028214973683980002      659.2226265122683
0.028412120943583204      659.8466929927233
0.028608365984047285      660.4592204196166
0.02880400723361381       661.060208792948
0.02899934588786498       661.6496581127174
0.02919468454211669       662.2275683789248
0.029390325791684838      662.7939395915705
0.02958657083215161       663.3487717506542
0.029783718091758563      663.892064856176
0.029980652759780888      664.2593727140279
0.030176688080480362      664.6244790978517
0.030372121537075924      664.9873840076468
0.03056725336547531       665.3480874434139
0.030762385193874833      665.7065894051526
0.030957818650470807      666.0628898928629
0.031153853971170976      666.416988906545
0.031350788639194264      666.7688864461987
