% Model:              brazing.mph
% Version:            COMSOL 5.3.0.223
% Date:               Oct 19 2018, 23:30
% Dimension:          1
% Nodes:              225
% Expressions:        1
% Description:        Line graph
% x                       Height
0                         608.8558451046133
2.1191841480136804E-4     608.7776019865408
4.2353438892247565E-4     608.6626652763061
6.349689892252786E-4      608.5110349739086
8.463435942227858E-4      608.3227110793488
0.001057779685752053      608.0976935926267
0.001269398639759412      607.8359825137417
0.001481321517995422      607.5375778426944
0.0017252358262731596     607.139359961926
0.0019686866163640313     606.7122361362327
0.0022118589563155885     606.2562063656145
0.002454938550168189      605.7712706500715
0.0026981113144448556     605.2574289896039
0.0029415629522145732     604.7146813842112
0.0031854785295931678     604.1430278338937
0.0034450106912723537     603.4352639430806
0.0037039863009040125     602.6978614108892
0.003962627412610827      601.9308202373197
0.0042211569424298        601.1341404223721
0.004479798094906585      600.3078219660464
0.004738773785972872      599.4518648683423
0.004998306069542035      598.5662691292601
0.005274868491808245      597.5278483883977
0.005550758931995686      596.4734807715697
0.0058262454501036105     595.4031662787758
0.006101597285810183      594.316904910016
0.006377084073678616      593.2146966652908
0.006652975052596927      592.0965415445994
0.006929538280995558      590.9624395479425
0.007206101510950518      589.7868023928511
0.007481992491406557      588.6279808378798
0.007757479280801014      587.4859748830285
0.00803283111802884       586.3607845282971
0.008308317637660222      585.2524097736863
0.008584208079380276      584.1608506191949
0.008860770503195153      583.0861070648239
0.009120302815147717      582.0761355409049
0.00937927853441616       581.1051721307974
0.009637919714987194      580.1732168345012
0.009896449272866283      579.2802696520164
0.010155090412673047      578.4263305833431
0.010414066050518256      577.6113996284809
0.01067359824059789       576.8354767874301
0.010917512776055054      576.1278295437643
0.011160965100129169      575.4682307951089
0.011404139717480647      574.856680541464
0.01164722176512739       574.2931787828297
0.011890396591516505      573.7777255192061
0.012133849333188814      573.3103207505928
0.012377764493855997      572.8909644769901
0.01258968694000722       572.5660199135247
0.012801305803204788      572.2793776253887
0.013012742322906452      572.0310376125825
0.013224118052332232      571.8209998751058
0.01343555464954572       571.6492644129593
0.013647173667633327      571.5158312261418
0.013859096345786744      571.4207003146543
0.014071014760598048      571.3786337096234
0.014282630734729056      571.3741351477398
0.01449406533504172       571.4072046290034
0.014705439940049088      571.4778421534144
0.014916876031588231      571.5860477209728
0.015128494985605482      571.7318213316782
0.015340417863851432      571.9151629855311
0.01558433217214941       572.1436104076727
0.015827782962260412      572.4270374163824
0.016070955302232025      572.7654440116604
0.016314034896104664      573.1588301935064
0.0165572076604014        573.6071959619211
0.01680065929819124       574.1105413169034
0.01704457487559009       574.6688662584542
0.01730410703726679       575.2771678359292
0.017563082646895985      575.9233854342974
0.01782172375860034       576.6075190535588
0.018080253288416847      577.3295686937133
0.01833889444089119       578.0895343547613
0.018597870131955005      578.8874160367021
0.018857402415521692      579.7232137395364
0.019133964837753384      580.6198031010862
0.019409855277906563      581.5339439118536
0.019685341795980367      582.4656361718384
0.019960693631652874      583.4148798810406
0.0202361804194872        584.3816750394607
0.020512071398371242      585.3660216470979
0.020788634626735362      586.3679197039529
0.02106519785666259       587.3491643634034
0.021341088837091095      588.3195008525155
0.021616575626458134      589.2789291712892
0.02189192746365859       590.2274493197247
0.022167413983262562      591.1650612978219
0.02244330442495508       592.0917651055805
0.022719866848742224      593.007560743001
0.022979399160698737      593.7735867808344
0.023238374879971102      594.5189158519189
0.023497016060546046      595.2435479562544
0.023755545618429033      595.9474830938409
0.02401418675823971       596.6307212646788
0.024273162396088833      597.2932624687674
0.024532694586172417      597.9351067061071
0.02477660912165014       598.4652364300422
0.02502006144574469       598.9639678634575
0.025263236063116538      599.4313010063528
0.025506318110783622      599.8672358587282
0.025749492937193107      600.2717724205842
0.02599294567888585       600.6449106919199
0.026236860839573585      600.986650672736
0.026448783285734738      601.2321501896749
0.02666040214894219       601.4614298091153
0.026871838668653707      601.674489531057
0.027083214398089334      601.8713293555002
0.027294650995312687      602.0519492824449
0.027506270013410168      602.2163493118908
0.02771819269157351       602.3645294438383
0.02793011110637494       602.4255048676584
0.028141727080496122      602.4693892490825
0.028353161680798985      602.4961825881104
0.028564536285796558      602.5058848847422
0.028775972377325904      602.4984961389781
0.028987591331333325      602.4740163508176
0.029199514209569403      602.4324455202611
0.02944342851784522       602.2644669123739
0.02968687930793418       602.0566920292091
0.02993005164788383       601.8091208707664
0.030173131241734534      601.5217534370458
0.0304163040060093        601.1945897280478
0.0306597556437771        600.8276297437718
0.030903671221153783      600.4208734842182
0.031163203382828072      599.8389006478128
0.03142217899245488       599.2146161871709
0.03168082010415685       598.5480201022922
0.03193934963397098       597.8391123931768
0.032197990786442934      597.0878930598252
0.03245696647750436       596.2943621022366
0.032716498761068635      595.4585195204114
0.03299306118333142       594.4086300624102
0.03326895162351545       593.3388204912613
0.03354443814161999       592.2490908069643
0.03381978997732317       591.1394410095193
0.034095276765188226      590.0098710989265
0.03437116774410313       588.8603810751854
0.03464773097249833       587.6909709382966
0.034924294202460265      586.4592587313102
0.03520018518292322       585.246561592977
0.03547567197232456       584.0528795232967
0.035751023809559274      582.8782125222696
0.036026510329197556      581.7225605898957
0.036302400770924524      580.5859237261747
0.03657896319474637       579.4683019311068
0.036838495506703706      578.418355367326
0.03709747122597688       577.4179916480435
0.037356112406552636      576.4672107732596
0.03761464196443644       575.5660127429738
0.03787328310424792       574.7143975571868
0.03813225874209787       573.9123652158978
0.03839179093218227       573.1599157191074
0.03863570546763781       572.4778482484588
0.038879157791710306      571.8557210029093
0.03912233240906017       571.2935339824588
0.03936541445670531       570.7912871871077
0.039608589283092806      570.3489806168559
0.039852042024763494      569.9666142717031
0.04009595718542905       569.6441881516495
0.040307879631580334      569.3968413951726
0.04051949849477797       569.1971792445571
0.0407309350144797        569.045201699803
0.040942310743905544      568.9409087609106
0.04115374734111909       568.8843004278799
0.04136536635920676       568.8753767007104
0.04157728903736024       568.9141375794026
0.04178920745215007       569.0062925695689
0.042000823426259694      569.1447169675198
0.042212258026551035      569.3294107732553
0.04242363263153709       569.5603739867756
0.0426350687230549        569.8376066080808
0.042846687677050764      570.1611086371704
0.04305861055527523       570.5308800740448
0.04330252486354604       570.9814128177643
0.043545975653630026      571.4949393956088
0.04378914799357473       572.0714598075778
0.044032227587420474      572.7109740536717
0.04427540035169028       573.413482133891
0.04451885198945311       574.1789840482346
0.044762767566824783      575.0074797967033
0.045022299728516735      575.9158543544108
0.04528127533816108       576.867509824121
0.045539916449880535      577.862446205834
0.045798445979712124      578.9006634995494
0.046057087132201545      579.9821617052679
0.04631606282328052       581.1069408229887
0.046575595106862454      582.2750008527123
0.04685215752913061       583.5213112453554
0.04712804796931999       584.7890213152202
0.04740353448742985       586.0781310623064
0.04767888632313835       587.3886404866142
0.04795437311100872       588.7205495881439
0.048230264089928976      590.0738583668946
0.048506827318329566      591.4485668228671
0.04878339054829114       592.7613251327302
0.049059281528753745      594.0548610512976
0.04933476831815475       595.329174578569
0.0496101201553891        596.5842657145444
0.04988560667502701       597.8201344592242
0.05016149711675364       599.0367808126076
0.050438059540575134      600.2342047746954
0.05069759185254397       601.1995462206706
0.05095656757182859       602.1216023811556
0.05121520875241573       603.0003732561503
0.05147373831031092       603.8358588456546
0.051732379450133786      604.628059149669
0.05199135508799517       605.3769741681928
0.05225088727809108       606.0826039012263
0.0524948018135407        606.6330219697018
0.052738254137607306      607.1283252411358
0.05298142875495131       607.5685137155284
0.05322451080259058       607.9535873928795
0.0534676856289722        608.2835462731897
0.05371113837063701       608.558390356458
0.05395505353129665       608.778119642685
0.05416697597743634       608.9050545849836
0.054378594840622414      608.993379092322
0.05459003136031263       609.0430931647005
0.05480140708972696       609.0541968021187
0.05501284368692898       609.0266900045771
0.0552244627050051        608.9605727720751
0.05543638538314697       608.8558451046133
