% Model:              brazing.mph
% Version:            COMSOL 5.3.0.223
% Date:               Oct 20 2018, 02:45
% Dimension:          1
% Nodes:              225
% Expressions:        1
% Description:        Line graph
% x                       Height
0                         647.0594936124052
2.3022181212578358E-4     646.9246196421022
4.5999325066962656E-4     646.7670050136978
6.894940081029028E-4      646.5866497271923
9.189044129547812E-4      646.383553782585
0.001148405006736289      646.1577171798767
0.0013781761183620641     645.9091399190667
0.001608397441069865      645.6378220001554
0.001839314118928521      644.9705667202633
0.0020697760201574002     644.3105213477305
0.002299964597801726      643.6576858825572
0.0025300619515304015     643.0120603247432
0.0027602503975112853     642.373644674289
0.0029907120357255193     641.7424389311939
0.003221628319839081      641.1184430954584
0.0034518885683530987     640.2814160934165
0.0036816980188178403     639.4379645524488
0.003911236592567028      638.5880884725551
0.004140684848157368      637.7317878537355
0.004370223557282477      636.8690626959904
0.004600033278179856      635.9999129993189
0.004830293931548535      635.1243387637218
0.005060048526376791      634.0641184859957
0.005289355629682316      633.0172327535586
0.005518393850920054      631.9836815664107
0.005747342428834         630.9634649245521
0.00597638081262499       629.956582827983
0.006205688240655705      628.9630352767026
0.006435443321622868      627.9828222707117
0.006665339619110656      626.9213174339889
0.006894787442849326      625.8798995902181
0.007123965728649401      624.8585687393993
0.007353054043912613      623.8573248815326
0.007582232167524012      622.8761680166181
0.007811679667266285      621.9150981446553
0.008041575479707366      620.9741152656446
0.008271887219609135      620.0239412760185
0.008501747728772392      619.1077222825191
0.008731337046705121      618.2254582851467
0.008960835851156599      617.3771492839012
0.009190425033567954      616.5627952787829
0.009420285272008154      615.7823962697913
0.009650596606620833      615.0359522569267
0.009881512912836019      614.314134790497
0.010111974573021956      613.6387943150119
0.010342163040896366      613.0099308304715
0.010572260416492441      612.4275443368758
0.010802449016030204      611.891634834225
0.011032910939230619      611.4022023225186
0.011263827639190652      610.9592468017572
0.011494048967061755      610.5359028962107
0.011723820083820682      610.1845507890896
0.011953320682717213      609.9051904803938
0.012182731092678062      609.6978219701232
0.012412231855226382      609.5624452582783
0.012642003298903411      609.4990603448585
0.012872225116192546      609.5076672298642
0.013102446994778118      609.3669294277232
0.013332218499393473      609.318864399205
0.01356171932266464       609.3634721443095
0.013791129793276359      609.5007526630369
0.01402063045289555       609.7307059553873
0.014250401630592404      610.0533320213601
0.014480623019759359      610.468630860956
0.014711539835704642      610.711828951388
0.014942001874208778      611.0344660211135
0.015172190588640395      611.436542070132
0.01540228807899374       611.9180570984435
0.015632476661762654      612.4790111060482
0.015862938437253588      613.1194040929458
0.01609385485945594       613.8392360591367
0.016324115336228646      614.4713529931325
0.016553925013622208      615.1412567542714
0.016783463813500554      615.8489473425532
0.017012912294953733      616.594424757978
0.01724245123020976       617.3776890005462
0.01747226117803945       618.1987400702571
0.017702522059672054      619.0575779671112
0.017932276794613372      619.9159395335652
0.018161584037218948      620.7997637665728
0.018390622397267263      621.709050666134
0.018619571113827754      622.6438002322487
0.018848609636427344      623.6040124649174
0.019077917203754128      624.5896873641393
0.019307672424828403      625.600824929915
0.019537568573699274      626.5168724842854
0.01976701624968263       627.4491623035047
0.019996194388245302      628.3976943875731
0.020225282556443316      629.3624687364904
0.020454460532815345      630.3434853502569
0.02068390788479834       631.3407442288722
0.020913803548616574      632.3542453723365
0.02114411498977932       633.1567906477127
0.021373975201947604      633.9741731291008
0.02160356422393484       634.8063928165009
0.02183306273279162       635.6534497099129
0.02206265161925901       636.5153438093372
0.02229251156070728       637.3920751147733
0.02252282259658549       638.2836436262215
0.022753738766914562      638.8485833129388
0.022984200292012823      639.418088194789
0.023214388625279938      639.9921582717725
0.023444485866429166      640.570793543889
0.023674674331359946      641.1539940111388
0.023905136119473275      641.7417596735214
0.024136052683548088      642.3340905310373
0.024366274021741702      642.5248979723219
0.024596045148762867      642.7214512308457
0.024825545757885373      642.9237503066083
0.02505495617806012       643.1317951996101
0.02528445695083446       643.3455859098513
0.025514228404773787      643.5651224373311
0.025744450232385536      643.7904047820501
0.025974672267095825      643.6506038983946
0.026204443926923768      643.4945208479837
0.02643394490485871       643.3221556308172
0.02666335552995085       643.1335082468955
0.026892856344233315      642.9285786962188
0.02712262767714175       642.7073669787864
0.02735284922243193       642.4698730945987
0.027583766528201624      641.8326335454144
0.027814229053652367      641.1914422887705
0.028044418253299775      640.5462993246671
0.02827451622829193       639.897204653104
0.028504705296278778      639.2441582740815
0.028735167558720572      638.5871601875992
0.028966084470753738      637.9262103936576
0.029196345605491433      637.1030306639211
0.02942615593701711       636.2519604405285
0.02965569538872289       635.3729997234794
0.029885144521236064      634.4661485127743
0.030114684108324883      633.5314068084132
0.030344494710297387      632.5687746103956
0.030574756249911007      631.5782519187219
0.030804511377321087      630.4983692126057
0.031033819010118435      629.4111918036779
0.031262857758987544      628.3167196919383
0.03149180686390927       627.214952877387
0.031720845775323685      626.1058913600241
0.031950153732830305      624.9895351398493
0.032179909346355486      623.8658842168629
0.0324098051544111        622.7563185314485
0.032639252491552244      621.6543629515324
0.03286843029245836       620.5600174771148
0.0330975181233935        619.4732821081955
0.03332669576210278       618.3941568447749
0.03355614277523119       617.3226416868524
0.033786038098215655      616.2587366344285
0.034016348759356954      615.2451446368688
0.03424620819605658       614.2642226850924
0.034475796445315066      613.315970779099
0.03470529418235937       612.4003889188887
0.03493488229610333       611.5174771044618
0.035164741462093585      610.6672353358178
0.03539505171796626       609.8496636129571
0.035625967353597694      609.0935809819913
0.03585642834714083       608.3902744661589
0.036086616150743635      607.7397440654596
0.03631671286286018       607.1419897798938
0.03654690079812825       606.5970116094616
0.036777362054689705      606.1048095541622
0.03700827808407173       605.6653836139965
0.03723849938140827       605.2755800655235
0.03746827046781093       604.9637008398868
0.03769777103645843       604.729745937086
0.03792718141620601       604.5737153571215
0.0381566821485052        604.4956090999933
0.03838645356182577       604.495427165701
0.03861667534858004       604.5731695542449
0.038846895274787324      604.5503561272056
0.039076664838430766      604.6249037632726
0.03930616372759302       604.7968124624459
0.03953557226638858       605.0660822247253
0.039765070991905134      605.4327130501113
0.039994840228642616      605.8967049386031
0.040225059665450036      606.4580578902013
0.04045597761776665       606.9008532187225
0.04068644078597457       607.4240097226964
0.04091663062609736       608.0275274021229
0.041146729240799984      608.711406257002
0.04137691894925231       609.475646287334
0.04160738185443156       610.3202474931185
0.04183829941298208       611.2452098743557
0.04206856149768976       612.1141617169105
0.04229837277362926       613.0181324187104
0.04252791316640542       613.9571219797549
0.04275736323887129       614.9311304000446
0.04298690376702529       615.9401576795797
0.04321671531340127       616.9842038183593
0.04344697780296935       618.0632688163843
0.043676731016186174      619.1976022671656
0.04390603674591497       620.340574570755
0.04413507359840861       621.4921857271523
0.04436402080919017       622.6524357363579
0.044593057824233256      623.8213245983718
0.04482236387867965       624.9988523131933
0.045052117578024006      626.1850188808232
0.045282012653644836      627.3774207278832
0.045511459262636354      628.5556191900296
0.04574063633797325       629.7196142672623
0.04596972344420469       630.8694059595817
0.046198900357357554      632.0049942669878
0.046428346642361965      633.12637918948
0.04665824123294997       634.2335607270588
0.04688855484177433       635.256601266028
0.04711841720894409       636.2603866201454
0.04734800837831597       637.2449167894106
0.04757750903201372       638.210191773824
0.047807100065861544      639.1562115733857
0.04803696216230292       640.0829761880951
0.04826727536583021       640.9904856179529
0.048498193048686675      641.6913953395799
0.048728656077441146      642.3714323812432
0.04895884590902903       643.0305967429425
0.04918894464672031       643.6688884246782
0.04941913460997818       644.2863074264503
0.04964959790176041       644.8828537482582
0.04988051597838159       645.4585273901025
0.05011073543954296       645.705756935555
0.0503405047004922        645.9468131192996
0.05057000345013497       646.1816959413364
0.05079941201302823       646.4104054016653
0.05102891092631677       646.6329415002866
0.05125868051417213       646.8493042371997
0.051488900464733596      647.0594936124052
