% Model:              brazing.mph
% Version:            COMSOL 5.3.0.223
% Date:               Oct 20 2018, 01:03
% Dimension:          1
% Nodes:              145
% Expressions:        1
% Description:        Line graph
% x                       Height
0                         629.2033501597656
1.8037553861809572E-4     629.4346532136824
3.5951128344368776E-4     629.6177416435265
5.377561773732229E-4      629.7526154492986
7.154644111300318E-4      629.8392746309983
8.929933875627798E-4      629.8777191886256
0.0010707015910786408     629.8679491221808
0.0012489464247083767     629.8099644316634
0.0014280820795340731     629.7037651170738
0.0016084574989771061     629.5493511784118
0.0017793134314883058     629.48467721464
0.0019491114898538484     629.3976580953941
0.002118149876008701      629.288293820675
0.0022867308232763497     629.1565843904818
0.002455159027530182      629.0025298048151
0.0026237400128558564     628.8261300636746
0.0027927784749207734     628.6273851670602
0.0029625766466419693     628.4062951149722
0.0031334327293582195     628.1628599074105
0.0033042867504275058     627.9916394379637
0.0034740828875811486     627.8166976668479
0.0036431193341009516     627.6380345940632
0.0038116983146850476     627.4556502196095
0.003980124516686077      627.2695445434869
0.004148703455848711      627.0797175656953
0.004317739819749776      626.8861692862347
0.004487535833529769      626.6888997051051
0.004658389691119368      626.4879088223066
0.0048387629974717405     626.3671753465787
0.005017896580971026      626.2532847797861
0.005196139373513023      626.1462371219291
0.0053738455543625        626.0460323730075
0.005551372514551955      625.9526705330214
0.005729078726427549      625.8661516019707
0.005907321580834967      625.7864755798554
0.006086455256670912      625.7136424666755
0.006266828685292636      625.6476522624312
0.0064472042239161545     625.778220039262
0.0066263399687470585     625.9181181244918
0.00680458486268183       626.0673465181212
0.0069822930964438265     626.2259052201497
0.007159822072881748      626.3937942305774
0.007337530276402798      626.5710135494045
0.007515775110037768      626.7575631766307
0.007694910764868775      626.9534431122561
0.007875286184317232      627.158653356281
0.008046142116827224      627.4141888019052
0.008215940175191578      627.6630751406107
0.008384978561345261      627.9053123723979
0.008553559508611747      628.1409004972667
0.008721987712864422      628.369839515217
0.008890568698188937      628.5921294262488
0.00905960716025268       628.8077702303619
0.009229405331972688      629.0167619275567
0.009400261414687729      629.2191045178331
0.009571115435747398      629.51685104327
0.009740911572891598      629.7875523318457
0.009909948019402086      630.0312083835605
0.010078526999976944      630.2478191984145
0.010246953201968763      630.4373847764075
0.010415532141122159      630.5999051175393
0.010584568505013912      630.7353802218104
0.010754364518784467      630.8438100892201
0.010925218376364454      630.9251947197691
0.011105591682722255      631.075796821519
0.01128472526622686       631.1840012443175
0.011462968058774099      631.2498079881651
0.011640674239628768      631.2732170530613
0.011818201199823401      631.2542284390064
0.01199590741170419       631.1928421460003
0.012174150266116847      631.089058174043
0.012353283941958112      630.9428765231345
0.012533657370585264      630.7542971932747
0.01271403176453574       630.7038083223911
0.012893166387683227      630.6043282274499
0.013071410176518557      630.4558569084512
0.013249117315197753      630.2583943653951
0.013426645199902413      630.0119405982815
0.013604352308338922      629.7164956071106
0.01378259603687098       629.3720593918821
0.013961730570013379      628.9786319525961
0.014142104844781908      628.5362132892527
0.014312959944399205      628.1547158977473
0.014482757184992078      627.7513904278417
0.014651794764271453      627.3262368795363
0.014820374911240972      626.8792552528306
0.014988802317395246      626.4104455477251
0.01515738250242126       625.9198077642194
0.015326420157607648      625.4073419023136
0.015496217511551624      624.8730479620077
0.015667072761367945      624.3169259433021
0.01583792791479403       623.8231334171239
0.016007725163749622      623.3377688384296
0.01617676270725794       622.8608322072196
0.01634534277588875       622.3923235234936
0.016513770062946447      621.9322427872517
0.01668235009015449       621.4805899984939
0.016851387551041475      621.0373651572199
0.017021184676619543      620.6025682634304
0.017192039666560827      620.1761993171248
0.017372413817338207      619.815396638594
0.017551548228302124      619.4811895610665
0.017729791836073705      619.1735780845421
0.017907498824762332      618.892562209021
0.018085026590318725      618.6381419345031
0.018262733610032132      618.4103172609884
0.018440977279666457      618.2090881884768
0.018620111782963036      618.0344547169684
0.018800486056004474      617.8864168464634
0.018980860449944497      617.9556411198349
0.019159995073081745      618.0562034273617
0.019338238861906984      618.188103769044
0.01951594600057618       618.3513421448816
0.019693473885270874      618.5459185548747
0.019871180993697383      618.7718329990231
0.020049424722219357      619.0290854773267
0.02022855925535152       619.3176759897858
0.0204089335301096        619.6376045364002
0.02057978862980686       620.0101777214606
0.020749585870478253      620.3873561104388
0.020918623449835097      620.7691397033351
0.021087203596881453      621.1555285001493
0.021255631003112355      621.5465225008816
0.021424211188215206      621.9421217055318
0.021593248843479067      622.3423261140998
0.021763046197501558      622.747135726586
0.02193390144739785       623.15655054299
0.022104756600747556      623.6856131954044
0.02227455384962815       624.1918430767013
0.02244359139306247       624.6752401868812
0.022612171461619885      625.1358045259439
0.022780598748604386      625.5735360938894
0.022949178775739036      625.9884348907177
0.02311821623655202       626.3805009164287
0.023288013362055097      626.7497341710225
0.023458868351919994      627.0961346544992
0.02363924250270423       627.5004203739383
0.023818376913674867      627.8621684275525
0.023996620521453065      628.1813788153423
0.02417432751014825       628.4580515373077
0.02435185527571118       628.6921865934484
0.024529562295431146      628.8837839837646
0.02470780596507209       629.0328437082561
0.024886940468375387      629.139365766923
0.025067314741423676      629.2033501597656
