% Model:              brazing.mph
% Version:            COMSOL 5.3.0.223
% Date:               Oct 20 2018, 01:31
% Dimension:          1
% Nodes:              225
% Expressions:        1
% Description:        Line graph
% x                       Height
0                         661.3461573128361
2.3022181212578358E-4     661.2001981161437
4.5999325066962656E-4     661.0302524980274
6.894940081029028E-4      660.8363204584872
9.189044129547812E-4      660.618401997523
0.001148405006736289      660.3764971151353
0.0013781761183620641     660.1106058113232
0.001608397441069865      659.8207280860875
0.001839314118928521      659.1212617584401
0.0020697760201574002     658.4281435913068
0.002299964597801726      657.7413735846872
0.0025300619515304015     657.0609517385813
0.0027602503975112853     656.3868780529895
0.0029907120357255193     655.7191525279111
0.003221628319839081      655.0577751633467
0.0034518885683530987     654.1771869438107
0.0036816980188178403     653.2882199958647
0.003911236592567028      652.3908743195085
0.004140684848157368      651.4851499147422
0.004370223557282477      650.5710467815665
0.004600033278179856      649.64856491998
0.004830293931548535      648.7177043299838
0.005060048526376791      647.6033020833625
0.005289355629682316      646.5014338268588
0.005518393850920054      645.4120995604732
0.005747342428834         644.3352992842052
0.00597638081262499       643.2710329980555
0.006205688240655705      642.2193007020231
0.006435443321622868      641.1801023961089
0.006665339619110656      640.0622583730083
0.006894787442849326      638.9645197582731
0.007123965728649401      637.8868865519039
0.007353054043912613      636.8293587539
0.007582232167524012      635.7919363642623
0.007811679667266285      634.77461938299
0.008041575479707366      633.7774078100833
0.008271887219609135      632.7748540537149
0.008501747728772392      631.8075126162968
0.008731337046705121      630.8753834978289
0.008960835851156599      629.9784666983115
0.009190425033567954      629.1167622177446
0.009420285272008154      628.2902700561278
0.009650596606620833      627.4989902134616
0.009881512912836019      626.736461440033
0.010111974573021956      626.0226649189595
0.010342163040896366      625.3576006502414
0.010572260416492441      624.7412686338782
0.010802449016030204      624.1736688698707
0.011032910939230619      623.6548013582179
0.011263827639190652      623.1846660989206
0.011494048967061755      622.7367853732969
0.011723820083820682      622.3650287569343
0.011953320682717213      622.0693962498326
0.012182731092678062      621.8498878519921
0.012412231855226382      621.7065035634129
0.012642003298903411      621.6392433840944
0.012872225116192546      621.648107314037
0.013102446994778118      621.4960309368838
0.013332218499393473      621.4425737509315
0.01356171932266464       621.4877357561799
0.013791129793276359      621.631516952629
0.01402063045289555       621.8739173402789
0.014250401630592404      622.2149369191294
0.014480623019759359      622.6545756891808
0.014711539835704642      622.9093468200693
0.014942001874208778      623.2484484190805
0.015172190588640395      623.6718804862143
0.01540228807899374       624.1796430214706
0.015632476661762654      624.7717360248497
0.015862938437253588      625.4481594963511
0.01609385485945594       626.2089134359753
0.016324115336228646      626.8767155259272
0.016553925013622208      627.5839184640457
0.016783463813500554      628.3305222503305
0.017012912294953733      629.1165268847819
0.01724245123020976       629.9419323674001
0.01747226117803945       630.8067386981845
0.017702522059672054      631.7109458771356
0.017932276794613372      632.6191395266704
0.018161584037218948      633.5531419423021
0.018390622397267263      634.5129531240308
0.018619571113827754      635.4985730718565
0.018848609636427344      636.5100017857797
0.019077917203754128      637.5472392657995
0.019307672424828403      638.6102855119165
0.019537568573699274      639.5807381216285
0.01976701624968263       640.5666702150438
0.019996194388245302      641.5680817921624
0.020225282556443316      642.5849728529843
0.020454460532815345      643.6173433975098
0.02068390788479834       644.665193425738
0.020913803548616574      645.7285229376699
0.02114411498977932       646.5814131505783
0.021373975201947604      647.4477223226593
0.02160356422393484       648.3274504539122
0.02183306273279162       649.2205975443377
0.02206265161925901       650.127163593936
0.02229251156070728       651.0471486027061
0.02252282259658549       651.9805525706488
0.022753738766914562      652.5854975196253
0.022984200292012823      653.1928220066437
0.023214388625279938      653.8025260317038
0.023444485866429166      654.4146095948058
0.023674674331359946      655.0290726959499
0.023905136119473275      655.6459153351356
0.024136052683548088      656.2651375123631
0.024366274021741702      656.4786698686235
0.024596045148762867      656.696044221438
0.024825545757885373      656.917260570807
0.02505495617806012       657.1423189167305
0.02528445695083446       657.3712192592086
0.025514228404773787      657.6039615982407
0.025744450232385536      657.8405459338276
0.025974672267095825      657.6994467735013
0.026204443926923768      657.5409370531161
0.02643394490485871       657.3650167726713
0.02666335552995085       657.1716859321675
0.026892856344233315      656.9609445316049
0.02712262767714175       656.7327925709826
0.02735284922243193       656.4872300503014
0.027583766528201624      655.8258449755389
0.027814229053652367      655.1595079699914
0.028044418253299775      654.4882190336587
0.02827451622829193       653.8119781665409
0.028504705296278778      653.1307853686385
0.028735167558720572      652.4446406399506
0.028966084470753738      651.753543980478
0.029196345605491433      650.8926573506786
0.02942615593701711       650.0016705688472
0.02965569538872289       649.0805836349829
0.029885144521236064      648.1293965490863
0.030114684108324883      647.1481093111577
0.030344494710297387      646.1367219211961
0.030574756249911007      645.0952343792025
0.030804511377321087      643.9648843113605
0.031033819010118435      642.8260686527977
0.031262857758987544      641.6787874035142
0.03149180686390927       640.52304056351
0.031720845775323685      639.3588281327854
0.031950153732830305      638.1861501113399
0.032179909346355486      637.0050064991738
0.0324098051544111        635.8410216059461
0.032639252491552244      634.6844757382262
0.03286843029245836       633.5353688960136
0.0330975181233935        632.3937010793088
0.03332669576210278       631.2594722881119
0.03355614277523119       630.132682522422
0.033786038098215655      629.0133317822401
0.034016348759356954      627.9487167078265
0.03424620819605658       626.9181078565125
0.034475796445315066      625.9215052282981
0.03470529418235937       624.9589088231832
0.03493488229610333       624.0303186411682
0.035164741462093585      623.1357346822524
0.03539505171796626       622.2751569464365
0.035625967353597694      621.4806462116862
0.03585642834714083       620.7414189707249
0.036086616150743635      620.0574752235525
0.03631671286286018       619.4288149701691
0.03654690079812825       618.8554382105751
0.036777362054689705      618.3373449447696
0.03700827808407173       617.8745351727533
0.03723849938140827       617.4645028249968
0.03746827046781093       617.1367925086058
0.03769777103645843       616.8914042235806
0.03792718141620601       616.728337969921
0.0381566821485052        616.6475937476273
0.03838645356182577       616.6491715566989
0.03861667534858004       616.7330713971364
0.038846895274787324      616.7061970933521
0.039076664838430766      616.7827798512524
0.03930616372759302       616.9628196708371
0.03953557226638858       617.2463165521066
0.039765070991905134      617.6332704950607
0.039994840228642616      618.1236814996993
0.040225059665450036      618.7175495660225
0.04045597761776665       619.1814757182623
0.04068644078597457       619.7307189185439
0.04091663062609736       620.3652791668668
0.041146729240799984      621.0851564632314
0.04137691894925231       621.890350807638
0.04160738185443156       622.7808622000857
0.04183829941298208       623.7566906405754
0.04206856149768976       624.6720010503311
0.04229837277362926       625.623872635153
0.04252791316640542       626.612305395041
0.04275736323887129       627.6372993299952
0.04298690376702529       628.6988544400157
0.04321671531340127       629.7969707251021
0.04344697780296935       630.9316481852549
0.043676731016186174      632.1258587102751
0.04390603674591497       633.3286903411629
0.04413507359840861       634.5401430779182
0.04436402080919017       635.7602169205411
0.044593057824233256      636.9889118690319
0.04482236387867965       638.22622792339
0.045052117578024006      639.4721650836159
0.045282012653644836      640.7270136385481
0.045511459262636354      641.9661657554723
0.04574063633797325       643.1896214343883
0.04596972344420469       644.3973806752966
0.046198900357357554      645.5894434781972
0.046428346642361965      646.7658098430894
0.04665824123294997       647.9264797699739
0.04688855484177433       649.0034406791864
0.04711841720894409       650.0588450524072
0.04734800837831597       651.0926928896356
0.04757750903201372       652.1049841908723
0.047807100065861544      653.0957189561174
0.04803696216230292       654.06489718537
0.04826727536583021       655.012518878631
0.048498193048686675      655.7517765556405
0.048728656077441146      656.4671389447482
0.04895884590902903       657.158606045954
0.04918894464672031       657.826177859258
0.04941913460997818       658.4698543846604
0.04964959790176041       659.0896356221607
0.04988051597838159       659.6855215717593
0.05011073543954296       659.9482205094504
0.0503405047004922        660.2024310270103
0.05057000345013497       660.4481531244384
0.05079941201302823       660.685386801735
0.05102891092631677       660.9141320589005
0.05125868051417213       661.134388895934
0.051488900464733596      661.3461573128361
