% Model:              brazing.mph
% Version:            COMSOL 5.3.0.223
% Date:               Oct 20 2018, 03:05
% Dimension:          1
% Nodes:              145
% Expressions:        1
% Description:        Line graph
% x                       Height
0                         619.8715013232991
1.8037553861809572E-4     620.1212480006396
3.5951128344368776E-4     620.319326336377
5.377561773732229E-4      620.4657363305115
7.154644111300318E-4      620.5604779830429
8.929933875627798E-4      620.6035512939715
0.0010707015910786408     620.594956263297
0.0012489464247083767     620.5346928910195
0.0014280820795340731     620.422761177139
0.0016084574989771061     620.2591611216554
0.0017793134314883058     620.1952518825095
0.0019491114898538484     620.1075482689668
0.002118149876008701      619.9960502810277
0.0022867308232763497     619.860757918692
0.002455159027530182      619.7016711819598
0.0026237400128558564     619.5187900708311
0.0027927784749207734     619.3121145853057
0.0029625766466419693     619.0816447253837
0.0031334327293582195     618.8273804910652
0.0033042867504275058     618.6574408983133
0.0034740828875811486     618.48258513816
0.0036431193341009516     618.3028132106053
0.0038116983146850476     618.1181251156493
0.003980124516686077      617.928520853292
0.004148703455848711      617.7340004235332
0.004317739819749776      617.534563826373
0.004487535833529769      617.3302110618114
0.004658389691119368      617.1209421298486
0.0048387629974717405     617.0020029122679
0.005017896580971026      616.8879436657966
0.005196139373513023      616.7787643904352
0.0053738455543625        616.6744650861835
0.005551372514551955      616.5750457530414
0.005729078726427549      616.480506391009
0.005907321580834967      616.3908470000863
0.006086455256670912      616.3060675802733
0.006266828685292636      616.2261681315698
0.0064472042239161545     616.3670833509453
0.0066263399687470585     616.5158832719311
0.00680458486268183       616.6725678945276
0.0069822930964438265     616.8371372187345
0.007159822072881748      617.0095912445518
0.007337530276402798      617.1899299719796
0.007515775110037768      617.3781534010178
0.007694910764868775      617.5742615316666
0.007875286184317232      617.7782543639257
0.008046142116827224      618.0389007950965
0.008215940175191578      618.2915395199851
0.008384978561345261      618.5361705385918
0.008553559508611747      618.7727938509164
0.008721987712864422      619.001409456959
0.008890568698188937      619.2220173567194
0.00905960716025268       619.4346175501978
0.009229405331972688      619.6392100373942
0.009400261414687729      619.8357948183084
0.009571115435747398      620.1425967350266
0.009740911572891598      620.4207898544529
0.009909948019402086      620.6703741765878
0.010078526999976944      620.8913497014308
0.010246953201968763      621.0837164289823
0.010415532141122159      621.2474743592421
0.010584568505013912      621.3826234922101
0.010754364518784467      621.4891638278864
0.010925218376364454      621.5670953662711
0.011105591682722255      621.7221071354828
0.01128472526622686       621.8327689096692
0.011462968058774099      621.8990806888306
0.011640674239628768      621.9210424729667
0.011818201199823401      621.8986542620778
0.01199590741170419       621.8319160561637
0.012174150266116847      621.7208278552242
0.012353283941958112      621.5653896592597
0.012533657370585264      621.36560146827
0.01271403176453574       621.3286421042618
0.012893166387683227      621.2398191659433
0.013071410176518557      621.099132653315
0.013249117315197753      620.9065825663764
0.013426645199902413      620.6621689051278
0.013604352308338922      620.3658916695691
0.01378259603687098       620.0177508597003
0.013961730570013379      619.6177464755215
0.014142104844781908      619.1658785170325
0.014312959944399205      618.7816496114907
0.014482757184992078      618.3742762341714
0.014651794764271453      617.9437583850751
0.014820374911240972      617.4900960642015
0.014988802317395246      617.0132892715504
0.01515738250242126       616.5133380071221
0.015326420157607648      615.9902422709166
0.015496217511551624      615.4440020629338
0.015667072761367945      614.8746173831737
0.01583792791479403       614.3794471163006
0.016007725163749622      613.8918062495708
0.01617676270725794       613.4116947829845
0.01634534277588875       612.9391127165414
0.016513770062946447      612.4740600502417
0.01668235009015449       612.0165367840854
0.016851387551041475      611.5665429180722
0.017021184676619543      611.1240784522023
0.017192039666560827      610.6891433864761
0.017372413817338207      610.329332821833
0.017551548228302124      609.9946081808106
0.017729791836073705      609.6849694634094
0.017907498824762332      609.4004166696292
0.018085026590318725      609.14094979947
0.018262733610032132      608.9065688529316
0.018440977279666457      608.6972738300144
0.018620111782963036      608.5130647307179
0.018800486056004474      608.3539415550426
0.018980860449944497      608.4363214222432
0.019159995073081745      608.5490345123609
0.019338238861906984      608.692080825396
0.01951594600057618       608.8654603613484
0.019693473885270874      609.0691731202181
0.019871180993697383      609.3032191020051
0.020049424722219357      609.5675983067091
0.02022855925535152       609.8623107343305
0.0204089335301096        610.1873563848693
0.02057978862980686       610.5713235588738
0.020749585870478253      610.9583062861243
0.020918623449835097      611.3483045666211
0.021087203596881453      611.741318400364
0.021255631003112355      612.1373477873528
0.021424211188215206      612.536392727588
0.021593248843479067      612.938453221069
0.021763046197501558      613.3435292677963
0.02193390144739785       613.7516208677697
0.022104756600747556      614.2963902003204
0.02227455384962815       614.8165723135805
0.02244359139306247       615.3121672075507
0.022612171461619885      615.7831748822306
0.022780598748604386      616.2295953376201
0.022949178775739036      616.6514285737195
0.02311821623655202       617.0486745905285
0.023288013362055097      617.4213333880472
0.023458868351919994      617.7694049662758
0.02363924250270423       618.1825579584215
0.023818376913674867      618.5508142680035
0.023996620521453065      618.874173895022
0.02417432751014825       619.1526368394772
0.02435185527571118       619.3862031013686
0.024529562295431146      619.5748726806966
0.02470780596507209       619.7186455774608
0.024886940468375387      619.8175217916616
0.025067314741423676      619.8715013232991
