% Model:              brazing.mph
% Version:            COMSOL 5.3.0.223
% Date:               Oct 20 2018, 02:45
% Dimension:          1
% Nodes:              145
% Expressions:        1
% Description:        Line graph
% x                       Height
0                         654.8207910186834
1.8037553861809572E-4     655.0669354970478
3.5951128344368776E-4     655.2623521466451
5.377561773732229E-4      655.4070409674757
7.154644111300318E-4      655.5010019595393
8.929933875627798E-4      655.5442351228361
0.0010707015910786408     655.536740457366
0.0012489464247083767     655.4785179631289
0.0014280820795340731     655.369567640125
0.0016084574989771061     655.2098894883542
0.0017793134314883058     655.1443577660423
0.0019491114898538484     655.0552570192202
0.002118149876008701      654.9425872478885
0.0022867308232763497     654.8063484520466
0.002455159027530182      654.6465406316947
0.0026237400128558564     654.4631637868331
0.0027927784749207734     654.2562179174613
0.0029625766466419693     654.0257030235796
0.0031334327293582195     653.7716191051879
0.0033042867504275058     653.5938352977189
0.0034740828875811486     653.4120059518821
0.0036431193341009516     653.2261310676782
0.0038116983146850476     653.0362106451071
0.003980124516686077      652.8422446841683
0.004148703455848711      652.6442331848624
0.004317739819749776      652.4421761471888
0.004487535833529769      652.2360735711479
0.004658389691119368      652.0259254567397
0.0048387629974717405     651.9007711232855
0.005017896580971026      651.7825805417153
0.005196139373513023      651.6713537120296
0.0053738455543625        651.5670906342281
0.005551372514551955      651.4697913083108
0.005729078726427549      651.3794557342779
0.005907321580834967      651.2960839121293
0.006086455256670912      651.219675841865
0.006266828685292636      651.1502315234848
0.0064472042239161545     651.287452205169
0.0066263399687470585     651.4342558504262
0.00680458486268183       651.590642459257
0.0069822930964438265     651.7566120316609
0.007159822072881748      651.9321645676381
0.007337530276402798      652.1173000671887
0.007515775110037768      652.3120185303125
0.007694910764868775      652.5163199570095
0.007875286184317232      652.7302043472799
0.008046142116827224      652.9975995064974
0.008215940175191578      653.2578684910861
0.008384978561345261      653.5110113010463
0.008553559508611747      653.757027936378
0.008721987712864422      653.9959183970809
0.008890568698188937      654.2276826831552
0.00905960716025268       654.4523207946007
0.009229405331972688      654.6698327314177
0.009400261414687729      654.880218493606
0.009571115435747398      655.1911964608946
0.009740911572891598      655.4736960460498
0.009909948019402086      655.7277172490718
0.010078526999976944      655.9532600699606
0.010246953201968763      656.1503245087162
0.010415532141122159      656.3189105653382
0.010584568505013912      656.4590182398272
0.010754364518784467      656.5706475321828
0.010925218376364454      656.6537984424051
0.011105591682722255      656.8094559894304
0.01128472526622686       656.9205466952145
0.011462968058774099      656.9870705597577
0.011640674239628768      657.0090275830601
0.011818201199823401      656.9864177651214
0.01199590741170419       656.9192411059419
0.012174150266116847      656.8074976055212
0.012353283941958112      656.6511872638595
0.012533657370585264      656.4503100809569
0.01271403176453574       656.3947071165667
0.012893166387683227      656.2877165770608
0.013071410176518557      656.1293384624396
0.013249117315197753      655.9195727727027
0.013426645199902413      655.6584195078505
0.013604352308338922      655.3458786678827
0.01378259603687098       654.9819502527993
0.013961730570013379      654.5666342626006
0.014142104844781908      654.0999306972863
0.014312959944399205      653.6976968570447
0.014482757184992078      653.2726504431057
0.014651794764271453      652.8247914554697
0.014820374911240972      652.3541198941368
0.014988802317395246      651.8606357591067
0.01515738250242126       651.3443390503794
0.015326420157607648      650.8052297679551
0.015496217511551624      650.2433079118335
0.015667072761367945      649.6585734820151
0.01583792791479403       649.1402187899002
0.016007725163749622      648.6306947610276
0.01617676270725794       648.1300013953975
0.01634534277588875       647.6381386930096
0.016513770062946447      647.1551066538642
0.01668235009015449       646.6809052779611
0.016851387551041475      646.2155345653003
0.017021184676619543      645.7589945158819
0.017192039666560827      645.3112851297058
0.017372413817338207      644.9334173053762
0.017551548228302124      644.5832997503829
0.017729791836073705      644.2609324647265
0.017907498824762332      643.9663154484065
0.018085026590318725      643.699448701423
0.018262733610032132      643.460332223776
0.018440977279666457      643.2489660154655
0.018620111782963036      643.0653500764917
0.018800486056004474      642.9094844068543
0.018980860449944497      642.9823815542659
0.019159995073081745      643.088037283557
0.019338238861906984      643.2264515947281
0.01951594600057618       643.3976244877789
0.019693473885270874      643.6015559627093
0.019871180993697383      643.8382460195195
0.020049424722219357      644.1076946582092
0.02022855925535152       644.4099018787788
0.0204089335301096        644.7448676812281
0.02057978862980686       645.1360131150319
0.020749585870478253      645.531959068783
0.020918623449835097      645.9327055424816
0.021087203596881453      646.3382525361276
0.021255631003112355      646.7486000497208
0.021424211188215206      647.1637480832617
0.021593248843479067      647.5836966367498
0.021763046197501558      648.0084457101851
0.02193390144739785       648.4379953035681
0.022104756600747556      648.9941782903643
0.02227455384962815       649.5265112939175
0.02244359139306247       650.0349943142284
0.022612171461619885      650.5196273512963
0.022780598748604386      650.9804104051215
0.022949178775739036      651.4173434757039
0.02311821623655202       651.8304265630436
0.023288013362055097      652.2196596671408
0.023458868351919994      652.5850427879951
0.02363924250270423       653.011803657949
0.023818376913674867      653.3939784279332
0.023996620521453065      653.7315670979484
0.02417432751014825       654.0245696679943
0.02435185527571118       654.2729861380708
0.024529562295431146      654.476816508178
0.02470780596507209       654.6360607783158
0.024886940468375387      654.7507189484843
0.025067314741423676      654.8207910186834
