% Model:              brazing.mph
% Version:            COMSOL 5.3.0.223
% Date:               Oct 20 2018, 01:43
% Dimension:          1
% Nodes:              193
% Expressions:        1
% Description:        Line graph
% x                       Height
0                         609.1720793305951
1.6028433640637486E-4     609.2581422437859
3.201839556876346E-4      609.3364289636761
4.7982673004648776E-4     609.4069394902652
6.393411493738095E-4      609.4696738235538
7.988560137323205E-4      609.5246319635414
9.58500122107595E-4       609.5718139102285
0.0011184019611720658     609.6112196636146
0.0012786893978073315     609.6428492237001
0.0014692881782178572     609.6685573939269
0.0016592398034323465     609.6772823773928
0.0018487589083489172     609.6690241740981
0.00203806159906999       609.6437827840425
0.0022273647228667317     609.6015582072263
0.0024168851255237504     609.5423504436492
0.002606838908709185      609.4661594933115
0.0027974407000143733     609.3729853562129
0.003000214284638094      609.2486212527192
0.0032022105766743216     609.108913127933
0.003403687017647933      608.953860981854
0.0036049030444305387     608.7834648144824
0.0038061191011872996     608.5977246258182
0.004007595631967136      608.3966404158613
0.00420959207329518       608.1802121846118
0.00441236586612622       607.9484399320697
0.004615139632985625      607.6874218075427
0.004817136048636202      607.4228756639441
0.005018612553936322      607.1548015012735
0.005219828585313435      606.8831993195313
0.005421044586718146      606.6080691187173
0.0056225210022172924     606.3294108988316
0.005824517268584787      606.0472246598742
0.006027290827249049      605.761510401845
0.006217890949519272      605.4643127405252
0.006407844130704021      605.1853902842632
0.0065973647866391935     604.9247430330593
0.00678666880286996       604.6823709869132
0.006975972806121895      604.4582741458249
0.007165493423165078      604.2524525097946
0.007355446539677438      604.0649060788222
0.007546046571713631      603.8956348529076
0.00770633524869351       603.7687616761199
0.007866237248851195      603.6594091392898
0.008025880956992212      603.5675772424175
0.008185395381580456      603.493265985503
0.008344909844757132      603.4364753685461
0.008504553668569658      603.397205391547
0.008664455861201733      603.3754560545055
0.008824744806995652      603.371227357422
0.008985029143401957      603.3859885054111
0.009144928762683142      603.4225837611633
0.009304571537041926      603.4810131246786
0.009464085956369179      603.561276595957
0.00962360082072762       603.6633741749985
0.009783244929102828      603.787305861803
0.009943146768167231      603.9330716563707
0.010103434204802428      604.1006715587014
0.010294032985212885      604.2923230416935
0.010483984610427306      604.5036903777692
0.01067350371534381       604.7347735669284
0.010862806406064813      604.9855726091713
0.011052109529861487      605.2560875044977
0.011241629932518437      605.5463182529076
0.011431583715703804      605.8562648544009
0.011622185507008923      606.185927308978
0.011824959091632737      606.5121582417318
0.012026955383669057      606.8309284454137
0.012228431824642762      607.1422379200245
0.01242964785142546       607.4460866655636
0.012630863908182311      607.7424746820312
0.012832340438962243      608.0314019694273
0.01303433688029038       608.3128685277518
0.013237110673121513      608.5868743570047
0.013439884439981065      608.8367259028018
0.013641880855631786      609.0669445076965
0.013843357360932049      609.2775301716882
0.014044573392309304      609.4684828947773
0.014245789393714157      609.6398026769635
0.014447265809213447      609.7914895182473
0.014649262075581083      609.9235434186284
0.01485203563424549       610.0359643781067
0.015042635756515686      610.1277943313908
0.015232588937700405      610.2027326201509
0.015422109593635547      610.2607792443869
0.015611413609866287      610.3019342040989
0.015800717613118194      610.3261974992868
0.01599023823016135       610.3335691299505
0.01618019134667368       610.3240490960902
0.016370791378709844      610.2976373977059
0.016531080055689654      610.2492946691735
0.01669098205584727       610.1969203535266
0.016850625763988217      610.1405144507651
0.017010140188576394      610.080076960889
0.017169654651752998      610.0156078838984
0.017329298475565455      609.9471072197932
0.017489200668197463      609.8745749685735
0.01764948961399131       609.7980111302392
0.01780977395039525       609.6915198055958
0.017969673569674088      609.5729529395811
0.018129316344030533      609.4423105321954
0.01828883076335545       609.2995925834383
0.01844834562771156       609.1447990933101
0.01860798973608443       608.9779300618105
0.018767891575146484      608.7989854889398
0.018928179011779317      608.6079653746979
0.019118777792188433      608.3216193726004
0.019308729417401523      608.0129377561733
0.019498248522316707      607.6819205254168
0.019687551213036395      607.3285676803307
0.019876854336831753      606.9528792209152
0.02006637473948738       606.5548551471701
0.020256328522671414      606.1344954590955
0.020446930313975188      605.6918001566916
0.02064970389860279       605.163375121489
0.02085170019064286       604.6221304444056
0.02105317663162028       604.068066125441
0.02125439265840668       603.5011821645953
0.021455608715167235      602.9214785618686
0.02165708524595088       602.3289553172608
0.021859081687282764      601.7236124307719
0.02206185548011769       601.105449902402
0.022264629246980954      600.4911144271944
0.022466625662635346      599.8891546368203
0.022668102167939252      599.2995705312798
0.022869318199320136      598.722362110573
0.023070534200728618      598.1575293747
0.023272010616231548      597.6050723236606
0.023474006882602858      597.0649909574548
0.02367678044127098       596.5372852760828
0.02386738056353977       596.0290614769834
0.024057333744723106      595.5556903352984
0.02424685440065687       595.1171718510275
0.024436158416886237      594.7135060241709
0.02462546242013677       594.3446928547286
0.024814983037178547      594.0107323427004
0.025004936153689494      593.7116244880865
0.025195536185724256      593.4473692908869
0.0253558248627017        593.219845218478
0.025515726862856965      593.0221489171253
0.025675370570995573      592.8542803868287
0.02583488499558142       592.7162396275883
0.02599439945875569       592.6080266394039
0.02615404328256581       592.5296414222757
0.026313945475195465      592.4810839762038
0.026474234420986946      592.4623543011879
0.026634518757392422      592.4677310213813
0.02679441837667279       592.4994237657562
0.026954061151030752      592.5574325343125
0.02711357557035719       592.6417573270503
0.027273090434714816      592.7523981439696
0.027432734543089202      592.8893549850702
0.027592636382152785      593.0526278503522
0.02775292381878715       593.2422167398158
0.02794352259919713       593.4778927209181
0.02813347422441108       593.7472424124456
0.028322993329327112      594.0502658143982
0.028512296020047647      594.386962926776
0.02870159914384385       594.757333749579
0.028891119546500334      595.1613782828069
0.02908107332968523       595.5990965264601
0.029271675120989875      596.0704884805384
0.02947444870561504       596.5882019194796
0.029676444997652693      597.1176825557229
0.02987792143862772       597.6589303892682
0.030079137465411736      598.2119454201155
0.030280353522169904      598.7767276482648
0.030481830052951155      599.3532770737163
0.030683826494280624      599.9415936964697
0.030886600287113104      600.5416775165252
0.03108937405397396       601.131014871911
0.03129137046962597       601.7142572133334
0.03149284697492751       602.2914045407924
0.03169406300630604       602.862456854288
0.03189527900771217       603.4274141538201
0.03209675542321274       603.986276439389
0.03229875168958166       604.5390437109944
0.03250152524824737       605.0857159686365
0.03269212537051706       605.528293006126
0.03288207855170127       605.9468096109379
0.033071599207635916      606.3412657830717
0.033260903223866156      606.7116615225277
0.033450207227117564      607.0579968293059
0.033639727844160215      607.380271703406
0.03382968096067204       607.6784861448284
0.034020280992707694      607.9526401535729
0.034180569669686675      608.1496908376697
0.03434047166984347       608.3339927254898
0.0345001153779836        608.5055458170328
0.03465962980257096       608.6643501122991
0.03481914426574675       608.8104056112885
0.034978788089558385      608.9437123140009
0.03513869028218957       609.0642702204365
0.035298979227982585      609.1720793305951
