% Model:              brazing.mph
% Version:            COMSOL 5.3.0.223
% Date:               Oct 20 2018, 03:04
% Dimension:          1
% Nodes:              145
% Expressions:        1
% Description:        Line graph
% x                       Height
0                         636.5585256142277
1.8037553861809572E-4     636.8299028572646
3.5951128344368776E-4     637.0451436953589
5.377561773732229E-4      637.2042481285109
7.154644111300318E-4      637.3072161567205
8.929933875627798E-4      637.3540477799876
0.0010707015910786408     637.3447429983122
0.0012489464247083767     637.2793018116944
0.0014280820795340731     637.1577242201339
0.0016084574989771061     636.9800102236312
0.0017793134314883058     636.9096566073308
0.0019491114898538484     636.8133354186301
0.002118149876008701      636.6910466575298
0.0022867308232763497     636.5427903240295
0.002455159027530182      636.3685664181291
0.0026237400128558564     636.1683749398289
0.0027927784749207734     635.9422158891286
0.0029625766466419693     635.6900892660283
0.0031334327293582195     635.4119950705282
0.0033042867504275058     635.2238738453514
0.0034740828875811486     635.0305450907672
0.0036431193341009516     634.8320088067757
0.0038116983146850476     634.6282649933769
0.003980124516686077      634.4193136505708
0.004148703455848711      634.2051547783575
0.004317739819749776      633.9857883767368
0.004487535833529769      633.7612144457086
0.004658389691119368      633.5314329852733
0.0048387629974717405     633.4001874726731
0.005017896580971026      633.2748921510217
0.005196139373513023      633.1555470203193
0.0053738455543625        633.0421520805661
0.005551372514551955      632.9347073317618
0.005729078726427549      632.8332127739064
0.005907321580834967      632.7376684070001
0.006086455256670912      632.6480742310428
0.006266828685292636      632.5644302460344
0.0064472042239161545     632.7173237493301
0.0066263399687470585     632.8793329497956
0.00680458486268183       633.0504578474312
0.0069822930964438265     633.2306984422366
0.007159822072881748      633.4200547342117
0.007337530276402798      633.6185267233568
0.007515775110037768      633.8261144096717
0.007694910764868775      634.0428177931564
0.007875286184317232      634.268636873811
0.008046142116827224      634.5570087556926
0.008215940175191578      634.836781729479
0.008384978561345261      635.107955795171
0.008553559508611747      635.3705309527683
0.008721987712864422      635.6245072022707
0.008890568698188937      635.8698845436785
0.00905960716025268       636.1066629769914
0.009229405331972688      636.3348425022095
0.009400261414687729      636.5544231193331
0.009571115435747398      636.8914942398886
0.009740911572891598      637.1972955484302
0.009909948019402086      637.4718270449584
0.010078526999976944      637.715088729473
0.010246953201968763      637.9270806019738
0.010415532141122159      638.1078026624609
0.010584568505013912      638.2572549109344
0.010754364518784467      638.3754373473942
0.010925218376364454      638.4623499718404
0.011105591682722255      638.6319432031798
0.01128472526622686       638.7530811471545
0.011462968058774099      638.8257638037646
0.011640674239628768      638.8499911730099
0.011818201199823401      638.8257632548906
0.01199590741170419       638.7530800494067
0.012174150266116847      638.631941556558
0.012353283941958112      638.4623477763445
0.012533657370585264      638.2442987087665
0.01271403176453574       638.1980183867196
0.012893166387683227      638.0951514017224
0.013071410176518557      637.9356977537756
0.013249117315197753      637.7196574428785
0.013426645199902413      637.4470304690317
0.013604352308338922      637.1178168322349
0.01378259603687098       636.7320165324879
0.013961730570013379      636.2896295697909
0.014142104844781908      635.7906559441442
0.014312959944399205      635.3650519720239
0.014482757184992078      634.9141886442841
0.014651794764271453      634.4380659609253
0.014820374911240972      633.936683921947
0.014988802317395246      633.4100425273492
0.01515738250242126       632.8581417771322
0.015326420157607648      632.2809816712958
0.015496217511551624      631.67856220984
0.015667072761367945      631.050883392765
0.01583792791479403       630.5023036933269
0.016007725163749622      629.9621977950205
0.01617676270725794       629.4305656978463
0.01634534277588875       628.9074074018039
0.016513770062946447      628.3927229068934
0.01668235009015449       627.8865122131149
0.016851387551041475      627.3887753204681
0.017021184676619543      626.8995122289533
0.017192039666560827      626.4187229385705
0.017372413817338207      626.0204598456812
0.017551548228302124      625.6503650809569
0.017729791836073705      625.3084386443977
0.017907498824762332      624.9946805360038
0.018085026590318725      624.7090907557747
0.018262733610032132      624.4516693037108
0.018440977279666457      624.2224161798117
0.018620111782963036      624.0213313840778
0.018800486056004474      623.8484149165091
0.018980860449944497      623.9350105487127
0.019159995073081745      624.0554474902801
0.019338238861906984      624.2097257412115
0.01951594600057618       624.397845301507
0.019693473885270874      624.6198061711665
0.019871180993697383      624.8756083501899
0.020049424722219357      625.1652518385772
0.02022855925535152       625.4887366363283
0.0204089335301096        625.8460627434438
0.02057978862980686       626.2691109024681
0.020749585870478253      626.6958904485548
0.020918623449835097      627.1264013817043
0.021087203596881453      627.5606437019165
0.021255631003112355      627.9986174091913
0.021424211188215206      628.4403225035287
0.021593248843479067      628.8857589849288
0.021763046197501558      629.3349268533914
0.02193390144739785       629.7878261089166
0.022104756600747556      630.3867246647613
0.02227455384962815       630.9589494611085
0.02244359139306247       631.5045004979589
0.022612171461619885      632.023377775312
0.022780598748604386      632.515581293168
0.022949178775739036      632.9811110515267
0.02311821623655202       633.4199670503882
0.023288013362055097      633.8321492897526
0.023458868351919994      634.2176577696198
0.02363924250270423       634.6734316995648
0.023818376913674867      635.080286253818
0.023996620521453065      635.4382214323799
0.02417432751014825       635.7472372352502
0.02435185527571118       636.007333662429
0.024529562295431146      636.218510713916
0.02470780596507209       636.3807683897115
0.024886940468375387      636.4941066898153
0.025067314741423676      636.5585256142277
