% Model:              brazing.mph
% Version:            COMSOL 5.3.0.223
% Date:               Oct 20 2018, 01:22
% Dimension:          1
% Nodes:              145
% Expressions:        1
% Description:        Line graph
% x                       Height
0                         651.4445987976951
1.8037553861809572E-4     651.720994145547
3.5951128344368776E-4     651.9405322475984
5.377561773732229E-4      652.10321310385
7.154644111300318E-4      652.2090367143013
8.929933875627798E-4      652.2580030789526
0.0010707015910786408     652.2501121978036
0.0012489464247083767     652.1853640708545
0.0014280820795340731     652.0637586981051
0.0016084574989771061     651.8852960795556
0.0017793134314883058     651.8161261021319
0.0019491114898538484     651.7208712924663
0.002118149876008701      651.5995316505592
0.0022867308232763497     651.4521071764108
0.002455159027530182      651.2785978700206
0.0026237400128558564     651.0790037313889
0.0027927784749207734     650.8533247605154
0.0029625766466419693     650.6015609574005
0.0031334327293582195     650.323712322044
0.0033042867504275058     650.1400392179193
0.0034740828875811486     649.9508776195864
0.0036431193341009516     649.7562275270457
0.0038116983146850476     649.5560889402968
0.003980124516686077      649.3504618593399
0.004148703455848711      649.1393462841751
0.004317739819749776      648.922742214802
0.004487535833529769      648.700649651221
0.004658389691119368      648.4730685934321
0.0048387629974717405     648.3465489649499
0.005017896580971026      648.2249920985523
0.005196139373513023      648.1083979942398
0.0053738455543625        647.9967666520122
0.005551372514551955      647.8900980718693
0.005729078726427549      647.7883922538114
0.005907321580834967      647.6916491978382
0.006086455256670912      647.59986890395
0.006266828685292636      647.5130513721466
0.0064472042239161545     647.6713004828332
0.0066263399687470585     647.8378467456554
0.00680458486268183       648.0126901606136
0.0069822930964438265     648.1958307277075
0.007159822072881748      648.3872684469374
0.007337530276402798      648.587003318303
0.007515775110037768      648.7950353418042
0.007694910764868775      649.0113645174415
0.007875286184317232      649.2359908452146
0.008046142116827224      649.5240454945324
0.008215940175191578      649.8030353339285
0.008384978561345261      650.0729603634034
0.008553559508611747      650.3338205829565
0.008721987712864422      650.5856159925881
0.008890568698188937      650.8283465922982
0.00905960716025268       651.0620123820868
0.009229405331972688      651.2866133619536
0.009400261414687729      651.5021495318992
0.009571115435747398      651.8403596236858
0.009740911572891598      652.1470642493873
0.009909948019402086      652.4222634090042
0.010078526999976944      652.6659571025365
0.010246953201968763      652.878145329984
0.010415532141122159      653.0588280913468
0.010584568505013912      653.2080053866249
0.010754364518784467      653.3256772158181
0.010925218376364454      653.4118435789267
0.011105591682722255      653.5814300328575
0.01128472526622686       653.7023485919111
0.011462968058774099      653.7745992560878
0.011640674239628768      653.7981820253873
0.011818201199823401      653.7730968998097
0.01199590741170419       653.6993438793551
0.012174150266116847      653.5769229640233
0.012353283941958112      653.4058341538142
0.012533657370585264      653.1860774487284
0.01271403176453574       653.146918436602
0.012893166387683227      653.0506979935072
0.013071410176518557      652.8974161194441
0.013249117315197753      652.6870728144125
0.013426645199902413      652.4196680784125
0.013604352308338922      652.0952019114443
0.01378259603687098       651.7136743135072
0.013961730570013379      651.2750852846019
0.014142104844781908      650.7794348247284
0.014312959944399205      650.3583954743488
0.014482757184992078      649.9119516206625
0.014651794764271453      649.4401032636702
0.014820374911240972      648.9428504033713
0.014988802317395246      648.4201930397661
0.01515738250242126       647.8721311728544
0.015326420157607648      647.2986648026362
0.015496217511551624      646.6997939291116
0.015667072761367945      646.0755185522806
0.01583792791479403       645.5347837828042
0.016007725163749622      645.0019582346112
0.01617676270725794       644.4770419077022
0.01634534277588875       643.960034802077
0.016513770062946447      643.4509369177356
0.01668235009015449       642.9497482546778
0.016851387551041475      642.4564688129038
0.017021184676619543      641.9710985924135
0.017192039666560827      641.4936375932072
0.017372413817338207      641.1009880299954
0.017551548228302124      640.7351588338277
0.017729791836073705      640.3961500047043
0.017907498824762332      640.0839615426252
0.018085026590318725      639.7985934475902
0.018262733610032132      639.5400457195994
0.018440977279666457      639.3083183586531
0.018620111782963036      639.1034113647506
0.018800486056004474      638.9253247378925
0.018980860449944497      639.0148810416767
0.019159995073081745      639.1371296074229
0.019338238861906984      639.2920704351312
0.01951594600057618       639.4797035248015
0.019693473885270874      639.7000288764337
0.019871180993697383      639.9530464900282
0.020049424722219357      640.2387563655845
0.02022855925535152       640.557158503103
0.0204089335301096        640.9082529025834
0.02057978862980686       641.3264601717199
0.020749585870478253      641.7474724242318
0.020918623449835097      642.1712896601196
0.021087203596881453      642.5979118793828
0.021255631003112355      643.0273390820215
0.021424211188215206      643.4595712680358
0.021593248843479067      643.8946084374256
0.021763046197501558      644.332450590191
0.02193390144739785       644.7730977263321
0.022104756600747556      645.3675547682368
0.02227455384962815       645.9350583913968
0.02244359139306247       646.4756085958127
0.022612171461619885      646.9892053814841
0.022780598748604386      647.4758487484111
0.022949178775739036      647.9355386965938
0.02311821623655202       648.368275226032
0.023288013362055097      648.7740583367256
0.023458868351919994      649.1528880286751
0.02363924250270423       649.6037470486845
0.023818376913674867      650.005549946164
0.023996620521453065      650.3582967211142
0.02417432751014825       650.661987373535
0.02435185527571118       650.9166219034261
0.024529562295431146      651.1222003107878
0.02470780596507209       651.2787225956196
0.024886940468375387      651.3861887579221
0.025067314741423676      651.4445987976951
