% Model:              brazing.mph
% Version:            COMSOL 5.3.0.223
% Date:               Oct 20 2018, 00:19
% Dimension:          1
% Nodes:              193
% Expressions:        1
% Description:        Line graph
% x                       Height
0                         611.0927173088925
1.6028433640637486E-4     611.181273279244
3.201839556876346E-4      611.262100505734
4.7982673004648776E-4     611.3351989883625
6.393411493738095E-4      611.4005687271296
7.988560137323205E-4      611.4582097220351
9.58500122107595E-4       611.5081219730793
0.0011184019611720658     611.5503054802618
0.0012786893978073315     611.584760243583
0.0014692881782178572     611.614041072719
0.0016592398034323465     611.6266461263846
0.0018487589083489172     611.62257540458
0.00203806159906999       611.6018289073049
0.0022273647228667317     611.5644066345596
0.0024168851255237504     611.5103085863439
0.002606838908709185      611.4395347626579
0.0027974407000143733     611.3520851635014
0.003000214284638094      611.2309046743227
0.0032022105766743216     611.0942906497605
0.003403687017647933      610.9422430898151
0.0036049030444305387     610.7747619944863
0.0038061191011872996     610.5918473637743
0.004007595631967136      610.3934991976787
0.00420959207329518       610.1797174962
0.00441236586612622       609.9505022593379
0.004615139632985625      609.6913042845415
0.004817136048636202      609.4285726636932
0.005018612553936322      609.162307396793
0.005219828585313435      608.8925084838409
0.005421044586718146      608.6191759248368
0.0056225210022172924     608.3423097197807
0.005824517268584787      608.0619098686727
0.006027290827249049      607.7779763715129
0.006217890949519272      607.481145155062
0.006407844130704021      607.2025714591518
0.0065973647866391935     606.9422552837824
0.00678666880286996       606.7001966289539
0.006975972806121895      606.4763954946662
0.007165493423165078      606.2708518809193
0.007355446539677438      606.0835657877132
0.007546046571713631      605.9145372150479
0.00770633524869351       605.7878985251056
0.007866237248851195      605.6788584189462
0.008025880956992212      605.5874168965698
0.008185395381580456      605.5135739579763
0.008344909844757132      605.4573296031658
0.008504553668569658      605.4186838321382
0.008664455861201733      605.3976366448935
0.008824744806995652      605.3941880414318
0.008985029143401957      605.4094948024227
0.009144928762683142      605.4466944371018
0.009304571537041926      605.5057869454688
0.009464085956369179      605.586772327524
0.00962360082072762       605.6896505832673
0.009783244929102828      605.8144217126985
0.009943146768167231      605.9610857158178
0.010103434204802428      606.1296425926251
0.010294032985212885      606.3229398721471
0.010483984610427306      606.5358864614926
0.01067350371534381       606.7684823606618
0.010862806406064813      607.0207275696544
0.011052109529861487      607.2926220884705
0.011241629932518437      607.58416591711
0.011431583715703804      607.8953590555732
0.011622185507008923      608.2262015038599
0.011824959091632737      608.5515420374427
0.012026955383669057      608.8693741064369
0.012228431824642762      609.1796977108422
0.01242964785142546       609.482512850659
0.012630863908182311      609.7778195258869
0.012832340438962243      610.0656177365262
0.01303433688029038       610.3459074825768
0.013237110673121513      610.6186887640386
0.013439884439981065      610.8655297466491
0.013641880855631786      611.0926833428988
0.013843357360932049      611.3001495527876
0.014044573392309304      611.4879283763155
0.014245789393714157      611.6560198134825
0.014447265809213447      611.8044238642888
0.014649262075581083      611.9331405287339
0.01485203563424549       612.0421698068184
0.015042635756515686      612.1293304775303
0.015232588937700405      612.1997894444307
0.015422109593635547      612.2535467075198
0.015611413609866287      612.2906022667975
0.015800717613118194      612.3109561222636
0.01599023823016135       612.3146082739183
0.01618019134667368       612.3015587217616
0.016370791378709844      612.2718074657935
0.016531080055689654      612.2204615627309
0.01669098205584727       612.1650787732285
0.016850625763988217      612.1056590972865
0.017010140188576394      612.042202534905
0.017169654651752998      611.9747090860837
0.017329298475565455      611.9031787508228
0.017489200668197463      611.8276115291224
0.01764948961399131       611.7480074209823
0.01780977395039525       611.639072407966
0.017969673569674088      611.5180590658755
0.018129316344030533      611.3849673947107
0.01828883076335545       611.2397973944716
0.01844834562771156       611.0825490651582
0.01860798973608443       610.9132224067705
0.018767891575146484      610.7318174193086
0.018928179011779317      610.5383341027725
0.019118777792188433      610.2501057928564
0.019308729417401523      609.9396399414177
0.019498248522316707      609.6069365484565
0.019687551213036395      609.2519956139727
0.019876854336831753      608.8748171379664
0.02006637473948738       608.4754011204376
0.020256328522671414      608.0537475613862
0.020446930313975188      607.6098564608124
0.02064970389860279       607.0759092682653
0.02085170019064286       606.5291345121394
0.02105317663162028       605.9695321924347
0.02125439265840668       605.3971023091513
0.021455608715167235      604.8118448622889
0.02165708524595088       604.2137598518476
0.021859081687282764      603.6028472778277
0.02206185548011769       602.9791071402288
0.022264629246980954      602.3569924063562
0.022466625662635346      601.7475419041156
0.022668102167939252      601.1507556335072
0.022869318199320136      600.5666335945309
0.023070534200728618      599.9951757871868
0.023272010616231548      599.4363822114748
0.023474006882602858      598.890252867395
0.02367678044127098       598.3567877549473
0.02386738056353977       597.841965918894
0.024057333744723106      597.3623538471506
0.02424685440065687       596.9179515397173
0.024436158416886237      596.508758996594
0.02462546242013677       596.1347762177807
0.024814983037178547      595.7960032032775
0.025004936153689494      595.492439953084
0.025195536185724256      595.2240864672008
0.0253558248627017        594.9933946510903
0.025515726862856965      594.7928588566621
0.025675370570995573      594.6224790839159
0.02583488499558142       594.482255332852
0.02599439945875569       594.3721876034701
0.02615404328256581       594.2922758957706
0.026313945475195465      594.2425202097531
0.026474234420986946      594.2229205454178
0.026634518757392422      594.2274889999989
0.02679441837667279       594.2587197278189
0.026954061151030752      594.316612728878
0.02711357557035719       594.4011680031762
0.027273090434714816      594.5123855507134
0.027432734543089202      594.6502653714897
0.027592636382152785      594.814807465505
0.02775292381878715       595.0060118327594
0.02794352259919713       595.2437837352052
0.02813347422441108       595.5155827140244
0.028322993329327112      595.8214087692172
0.028512296020047647      596.1612619007836
0.02870159914384385       596.5351421087236
0.028891119546500334      596.9430493930372
0.02908107332968523       597.3849837537243
0.029271675120989875      597.8609451907851
0.02947444870561504       598.3823864140579
0.029676444997652693      598.9160410482298
0.02987792143862772       599.4619090933002
0.030079137465411736      600.0199905492694
0.030280353522169904      600.5902854161375
0.030481830052951155      601.1727936939043
0.030683826494280624      601.76751538257
0.030886600287113104      602.3744504821343
0.03108937405397396       602.970030381922
0.03129137046962597       603.5596166180653
0.03149284697492751       604.1432091905647
0.03169406300630604       604.7208080994196
0.03189527900771217       605.2924133446305
0.03209675542321274       605.8580249261971
0.03229875168958166       606.4176428441197
0.03250152524824737       606.9712670983979
0.03269212537051706       607.4155676153033
0.03288207855170127       607.8360232786463
0.033071599207635916      608.2326340884265
0.033260903223866156      608.6054000446442
0.033450207227117564      608.9543211472992
0.033639727844160215      609.2793973963917
0.03382968096067204       609.5806287919216
0.034020280992707694      609.8580153338889
0.034180569669686675      610.0569100752208
0.03434047166984347       610.2430742467078
0.0345001153779836        610.4165078483503
0.03465962980257096       610.5772108801481
0.03481914426574675       610.7251833421012
0.034978788089558385      610.8604252342096
0.03513869028218957       610.9829365564734
0.035298979227982585      611.0927173088925
