% Model:              brazing.mph
% Version:            COMSOL 5.3.0.223
% Date:               Oct 20 2018, 00:51
% Dimension:          1
% Nodes:              225
% Expressions:        1
% Description:        Line graph
% x                       Height
0                         674.86940867171
2.3022181212578358E-4     674.7250453769266
4.5999325066962656E-4     674.5568104379383
6.894940081029028E-4      674.3647038547446
9.189044129547812E-4      674.1487256273457
0.001148405006736289      673.9088757557421
0.0013781761183620641     673.6451542399327
0.001608397441069865      673.3575610799184
0.001839314118928521      672.6595451256165
0.0020697760201574002     671.9679462343667
0.002299964597801726      671.2827644061681
0.0025300619515304015     670.6039996410212
0.0027602503975112853     669.9316519389265
0.0029907120357255193     669.2657212998831
0.003221628319839081      668.6062077238915
0.0034518885683530987     667.7264192526802
0.0036816980188178403     666.8382834140297
0.003911236592567028      665.9418002079402
0.004140684848157368      665.0369696344115
0.004370223557282477      664.1237916934441
0.004600033278179856      663.2022663850372
0.004830293931548535      662.2723937091915
0.005060048526376791      661.158424434279
0.005289355629682316      660.0570155092795
0.005518393850920054      658.9681669341926
0.005747342428834         657.8918787090187
0.00597638081262499       656.828150833758
0.006205688240655705      655.7769833084097
0.006435443321622868      654.7383761329747
0.006665339619110656      653.6204594315998
0.006894787442849326      652.5225883321223
0.007123965728649401      651.4447628345416
0.007353054043912613      650.3869829388584
0.007582232167524012      649.3492486450727
0.007811679667266285      648.3315599531838
0.008041575479707366      647.3339168631925
0.008271887219609135      646.3303468864952
0.008501747728772392      645.3618539079378
0.008731337046705121      644.42843792752
0.008960835851156599      643.5300989452422
0.009190425033567954      642.6668369611043
0.009420285272008154      641.8386519751061
0.009650596606620833      641.0455439872478
0.009881512912836019      640.2804971802667
0.010111974573021956      639.5639762075612
0.010342163040896366      638.8959810691308
0.010572260416492441      638.276511764976
0.010802449016030204      637.7055682950971
0.011032910939230619      637.1831506594932
0.011263827639190652      636.709258858165
0.011494048967061755      636.2573034463242
0.011723820083820682      635.8810228479948
0.011953320682717213      635.5804170631767
0.012182731092678062      635.3554860918704
0.012412231855226382      635.2062299340755
0.012642003298903411      635.132648589792
0.012872225116192546      635.13474205902
0.013102446994778118      634.9776793956265
0.013332218499393473      634.9185165262872
0.01356171932266464       634.9572534510016
0.013791129793276359      635.0938901697704
0.01402063045289555       635.3284266825932
0.014250401630592404      635.6608629894697
0.014480623019759359      636.0911990904006
0.014711539835704642      636.3390872502054
0.014942001874208778      636.6707684053504
0.015172190588640395      637.0862425558353
0.01540228807899374       637.5855097016605
0.015632476661762654      638.1685698428261
0.015862938437253588      638.8354229793314
0.01609385485945594       639.586069111177
0.016324115336228646      640.2449491292203
0.016553925013622208      640.9431834568373
0.016783463813500554      641.6807720940282
0.017012912294953733      642.4577150407928
0.01724245123020976       643.2740122971314
0.01747226117803945       644.1296638630436
0.017702522059672054      645.0246697385297
0.017932276794613372      645.9231718705923
0.018161584037218948      646.8476920357043
0.018390622397267263      647.7982302338652
0.018619571113827754      648.7747864650755
0.018848609636427344      649.7773607293352
0.019077917203754128      650.8059530266438
0.019307672424828403      651.8605633570018
0.019537568573699274      652.8226302740127
0.01976701624968263       653.8004151313373
0.019996194388245302      654.7939179289754
0.020225282556443316      655.8031386669272
0.020454460532815345      656.828077345193
0.02068390788479834       657.868733963772
0.020913803548616574      658.925108522665
0.02114411498977932       659.7706698601158
0.021373975201947604      660.6299191878577
0.02160356422393484       661.5028565058908
0.02183306273279162       662.389481814215
0.02206265161925901       663.2897951128305
0.02229251156070728       664.2037964017367
0.02252282259658549       665.1314856809344
0.022753738766914562      665.729979350728
0.022984200292012823      666.3312322874715
0.023214388625279938      666.9352444911646
0.023444485866429166      667.5420159618072
0.023674674331359946      668.1515466994
0.023905136119473275      668.7638367039419
0.024136052683548088      669.3788859754337
0.024366274021741702      669.5870113688254
0.024596045148762867      669.7995481456878
0.024825545757885373      670.0164963060205
0.02505495617806012       670.2378558498237
0.02528445695083446       670.4636267770978
0.025514228404773787      670.6938090878419
0.025744450232385536      670.9284027820568
0.025974672267095825      670.7816776404371
0.026204443926923768      670.6182003828751
0.02643394490485871       670.437971009371
0.02666335552995085       670.2409895199249
0.026892856344233315      670.0272559145371
0.02712262767714175       669.7967701932067
0.02735284922243193       669.5495323559344
0.027583766528201624      668.886113379743
0.027814229053652367      668.2184317394842
0.028044418253299775      667.5464874351582
0.02827451622829193       666.8702804667647
0.028504705296278778      666.1898108343041
0.028735167558720572      665.5050785377758
0.028966084470753738      664.8160835771804
0.029196345605491433      663.956651619113
0.02942615593701711       663.0676432829217
0.02965569538872289       662.1490585686062
0.029885144521236064      661.2008974761668
0.030114684108324883      660.2231600056036
0.030344494710297387      659.2158461569161
0.030574756249911007      658.1789559301047
0.030804511377321087      657.0534159556579
0.031033819010118435      655.9197590445218
0.031262857758987544      654.7779851966962
0.03149180686390927       653.6280944121814
0.031720845775323685      652.4700866909777
0.031950153732830305      651.3039620330842
0.032179909346355486      650.1297204385016
0.0324098051544111        648.9726812454534
0.032639252491552244      647.8233246317351
0.03286843029245836       646.6816505973469
0.0330975181233935        645.547659142289
0.03332669576210278       644.4213502665616
0.03355614277523119       643.302723970164
0.033786038098215655      642.1917802530968
0.034016348759356954      641.1355322646765
0.03424620819605658       640.1133588045348
0.034475796445315066      639.1252598726717
0.03470529418235937       638.171235469087
0.03493488229610333       637.2512855937814
0.035164741462093585      636.3654102467538
0.03539505171796626       635.513609428005
0.035625967353597694      634.7274930000306
0.03585642834714083       633.9966199222048
0.036086616150743635      633.3209901945276
0.03631671286286018       632.7006038169988
0.03654690079812825       632.135460789619
0.036777362054689705      631.6255611123873
0.03700827808407173       631.1709047853045
0.03723849938140827       630.7689418031499
0.03746827046781093       630.448817161769
0.03769777103645843       630.2105308611622
0.03792718141620601       630.0540829013291
0.0381566821485052        629.9794732822702
0.03838645356182577       629.9867020039846
0.03861667534858004       630.0757690664733
0.038846895274787324      630.0572520617216
0.039076664838430766      630.141237725679
0.03930616372759302       630.3277260583459
0.03953557226638858       630.6167170597222
0.039765070991905134      631.0082107298081
0.039994840228642616      631.5022070686031
0.040225059665450036      632.0987060761076
0.04045597761776665       632.5690550101367
0.04068644078597457       633.1238868896185
0.04091663062609736       633.7632017145526
0.041146729240799984      634.4869994849391
0.04137691894925231       635.2952802007786
0.04160738185443156       636.1880438620703
0.04183829941298208       637.1652904688148
0.04206856149768976       638.0840387848402
0.04229837277362926       639.0391677549577
0.04252791316640542       640.0306773791668
0.04275736323887129       641.058567657468
0.04298690376702529       642.1228385898613
0.04321671531340127       643.2234901763462
0.04344697780296935       644.3605224169231
0.043676731016186174      645.5564008831509
0.04390603674591497       646.7609150654139
0.04413507359840861       647.9740649637118
0.04436402080919017       649.1958505780448
0.044593057824233256      650.4262719084131
0.04482236387867965       651.6653289548161
0.045052117578024006      652.9130217172544
0.045282012653644836      654.1696564271954
0.045511459262636354      655.4107099390909
0.04574063633797325       656.6361822529409
0.04596972344420469       657.8460733687456
0.046198900357357554      659.0403832865051
0.046428346642361965      660.219112006219
0.04665824123294997       661.3822595278875
0.04688855484177433       662.4616114538103
0.04711841720894409       663.5194899733929
0.04734800837831597       664.5558950866348
0.04757750903201372       665.5708267935364
0.047807100065861544      666.564285094098
0.04803696216230292       667.5362699883186
0.04826727536583021       668.4867814761991
0.048498193048686675      669.2286103424874
0.048728656077441146      669.9467483301551
0.04895884590902903       670.6411954392019
0.04918894464672031       671.3119516696277
0.04941913460997818       671.9590170214332
0.04964959790176041       672.5823914946176
0.04988051597838159       673.1820750891812
0.05011073543954296       673.4485026219664
0.0503405047004922        673.7064701953722
0.05057000345013497       673.9559778093986
0.05079941201302823       674.1970254640455
0.05102891092631677       674.4296131593131
0.05125868051417213       674.6537408952012
0.051488900464733596      674.86940867171
