% Model:              brazing.mph
% Version:            COMSOL 5.3.0.223
% Date:               Oct 20 2018, 00:31
% Dimension:          1
% Nodes:              193
% Expressions:        1
% Description:        Line graph
% x                       Height
0                         569.385663624646
1.6028433640637486E-4     569.4663992071156
3.201839556876346E-4      569.5396839560025
4.7982673004648776E-4     569.605517871307
6.393411493738095E-4      569.6639009530288
7.988560137323205E-4      569.7148332011681
9.58500122107595E-4       569.7583146157248
0.0011184019611720658     569.7943451966988
0.0012786893978073315     569.8229249440903
0.0014692881782178572     569.844702937631
0.0016592398034323465     569.8495094920803
0.0018487589083489172     569.8373446074382
0.00203806159906999       569.8082082837045
0.0022273647228667317     569.7621005208794
0.0024168851255237504     569.6990213189628
0.002606838908709185      569.6189706779547
0.0027974407000143733     569.5219485978552
0.003000214284638094      569.4001777582848
0.0032022105766743216     569.2632169616667
0.003403687017647933      569.1110662080009
0.0036049030444305387     568.9437254972873
0.0038061191011872996     568.7611948295262
0.004007595631967136      568.5634742047173
0.00420959207329518       568.3505636228606
0.00441236586612622       568.1224630839563
0.004615139632985625      567.8652052217535
0.004817136048636202      567.6047633786789
0.005018612553936322      567.3411375547323
0.005219828585313435      567.074327749914
0.005421044586718146      566.8043339642238
0.0056225210022172924     566.5311561976617
0.005824517268584787      566.2547944502278
0.006027290827249049      565.9752487219221
0.006217890949519272      565.6871124293998
0.006407844130704021      565.4167424841127
0.0065973647866391935     565.1641388860603
0.00678666880286996       564.929301635243
0.006975972806121895      564.7122307316604
0.007165493423165078      564.5129261753128
0.007355446539677438      564.3313879662003
0.007546046571713631      564.1676161043225
0.00770633524869351       564.0448321880997
0.007866237248851195      563.9392438582613
0.008025880956992212      563.8508511148075
0.008185395381580456      563.779653957738
0.008344909844757132      563.7256523870531
0.008504553668569658      563.6888464027526
0.008664455861201733      563.6692360048365
0.008824744806995652      563.6668211933049
0.008985029143401957      563.6835131087255
0.009144928762683142      563.7212681490482
0.009304571537041926      563.7800863142734
0.009464085956369179      563.8599676044007
0.00962360082072762       563.9609120194305
0.009783244929102828      564.0829195593624
0.009943146768167231      564.2259902241966
0.010103434204802428      564.3901240139332
0.010294032985212885      564.5786578988062
0.010483984610427306      564.7863465722427
0.01067350371534381       565.0131900342426
0.010862806406064813      565.2591882848059
0.011052109529861487      565.5243413239326
0.011241629932518437      565.8086491516228
0.011431583715703804      566.1121117678764
0.011622185507008923      566.4347291726934
0.011824959091632737      566.7560849984475
0.012026955383669057      567.0704685293684
0.012228431824642762      567.3778797654564
0.01242964785142546       567.6783187067111
0.012630863908182311      567.9717853531328
0.012832340438962243      568.2582797047213
0.01303433688029038       568.5378017614768
0.013237110673121513      568.8103515233992
0.013439884439981065      569.0582038681841
0.013641880855631786      569.2869945630898
0.013843357360932049      569.4967236081164
0.014044573392309304      569.6873910032638
0.014245789393714157      569.8589967485319
0.014447265809213447      570.0115408439208
0.014649262075581083      570.1450232894305
0.01485203563424549       570.259444085061
0.015042635756515686      570.3559267313808
0.015232588937700405      570.4355363947166
0.015422109593635547      570.4982730750681
0.015611413609866287      570.5441367724355
0.015800717613118194      570.5731274868187
0.01599023823016135       570.5852452182178
0.01618019134667368       570.5804899666326
0.016370791378709844      570.5588617320634
0.016531080055689654      570.5153050150064
0.01669098205584727       570.4678958118112
0.016850625763988217      570.4166341224776
0.017010140188576394      570.3615199470057
0.017169654651752998      570.3025532853954
0.017329298475565455      570.239734137647
0.017489200668197463      570.1730625037601
0.01764948961399131       570.102538383735
0.01780977395039525       570.0011376366017
0.017969673569674088      569.8879255320687
0.018129316344030533      569.7629020701362
0.01828883076335545       569.626067250804
0.01844834562771156       569.4774210740721
0.01860798973608443       569.3169635399407
0.018767891575146484      569.1446946484098
0.018928179011779317      568.9606143994791
0.019118777792188433      568.6834138554274
0.019308729417401523      568.3842037263651
0.019498248522316707      568.0629840122921
0.019687551213036395      567.7197547132083
0.019876854336831753      567.3545158291139
0.02006637473948738       566.9672673600089
0.020256328522671414      566.5580093058933
0.020446930313975188      566.126741666767
0.02064970389860279       565.6149434003804
0.02085170019064286       565.0908765522954
0.02105317663162028       564.5545411225121
0.02125439265840668       564.0059371110303
0.021455608715167235      563.4450645178503
0.02165708524595088       562.8719233429716
0.021859081687282764      562.2865135863948
0.02206185548011769       561.6888352481194
0.022264629246980954      561.0939712773338
0.022466625662635346      560.5110857385
0.022668102167939252      559.940178631618
0.022869318199320136      559.3812499566877
0.023070534200728618      558.8342997137092
0.023272010616231548      558.2993279026826
0.023474006882602858      557.7763345236077
0.02367678044127098       557.2653195764847
0.02386738056353977       556.7745743459136
0.024057333744723106      556.3172841744757
0.02424685440065687       555.8934490621708
0.024436158416886237      555.5030690089989
0.02462546242013677       555.1461440149599
0.024814983037178547      554.8226740800538
0.025004936153689494      554.532659204281
0.025195536185724256      554.276099387641
0.0253558248627017        554.055795573177
0.025515726862856965      553.8641339581368
0.025675370570995573      553.70111454252
0.02583488499558142       553.5667373263269
0.02599439945875569       553.4610023095576
0.02615404328256581       553.3839094922117
0.026313945475195465      553.3354588742895
0.026474234420986946      553.315650455791
0.026634518757392422      553.3192232571064
0.02679441837667279       553.3481853908798
0.026954061151030752      553.4025368571115
0.02711357557035719       553.4822776558011
0.027273090434714816      553.5874077869489
0.027432734543089202      553.7179272505547
0.027592636382152785      553.8738360466187
0.02775292381878715       554.0551341751408
0.02794352259919713       554.2812224290274
0.02813347422441108       554.539814344356
0.028322993329327112      554.8309099211272
0.028512296020047647      555.1545091593405
0.02870159914384385       555.510612058996
0.028891119546500334      555.8992186200938
0.02908107332968523       556.320328842634
0.029271675120989875      556.7739427266164
0.02947444870561504       557.2724473782762
0.029676444997652693      557.7824622663557
0.02987792143862772       558.3039873908552
0.030079137465411736      558.8370227517744
0.030280353522169904      559.3815683491134
0.030481830052951155      559.9376241828722
0.030683826494280624      560.505190253051
0.030886600287113104      561.0842665596494
0.03108937405397396       561.6519433686072
0.03129137046962597       562.2131299871003
0.03149284697492751       562.7678264151289
0.03169406300630604       563.3160326526927
0.03189527900771217       563.857748699792
0.03209675542321274       564.3929745564267
0.03229875168958166       564.9217102225966
0.03250152524824737       565.443955698302
0.03269212537051706       565.8741167149071
0.03288207855170127       566.2804011022081
0.033071599207635916      566.6628088602048
0.033260903223866156      567.0213399888972
0.033450207227117564      567.3559944882854
0.033639727844160215      567.6667723583695
0.03382968096067204       567.9536735991493
0.034020280992707694      568.2166982106249
0.034180569669686675      568.4057845905808
0.03434047166984347       568.5825950553357
0.0345001153779836        568.7471296048898
0.03465962980257096       568.8993882392429
0.03481914426574675       569.0393709583951
0.034978788089558385      569.1670777623463
0.03513869028218957       569.2825086510966
0.035298979227982585      569.385663624646
