% Model:              brazing.mph
% Version:            COMSOL 5.3.0.223
% Date:               Oct 20 2018, 02:18
% Dimension:          1
% Nodes:              145
% Expressions:        1
% Description:        Line graph
% x                       Height
0                         633.1260156238029
1.8037553861809572E-4     633.381225326599
3.5951128344368776E-4     633.5833579098552
5.377561773732229E-4      633.732413373572
7.154644111300318E-4      633.8283917177489
8.929933875627798E-4      633.8712929423862
0.0010707015910786408     633.8611170474838
0.0012489464247083767     633.7978640330417
0.0014280820795340731     633.6815338990599
0.0016084574989771061     633.5121266455385
0.0017793134314883058     633.4430822039684
0.0019491114898538484     633.3495319983356
0.002118149876008701      633.2314760286404
0.0022867308232763497     633.0889142948827
0.002455159027530182      632.9218467970625
0.0026237400128558564     632.7302735351798
0.0027927784749207734     632.5141945092346
0.0029625766466419693     632.2736097192268
0.0031334327293582195     632.0085191651566
0.0033042867504275058     631.8265478301471
0.0034740828875811486     631.6400388753723
0.0036431193341009516     631.4489923008325
0.0038116983146850476     631.2534081065277
0.003980124516686077      631.0532862924575
0.004148703455848711      630.8486268586223
0.004317739819749776      630.6394298050218
0.004487535833529769      630.4256951316562
0.004658389691119368      630.2074228385255
0.0048387629974717405     630.0805404875745
0.005017896580971026      629.9600317693196
0.005196139373513023      629.8458966837612
0.0053738455543625        629.7381352308992
0.005551372514551955      629.6367474107334
0.005729078726427549      629.541733223264
0.005907321580834967      629.4530926684911
0.006086455256670912      629.3708257464143
0.006266828685292636      629.2949324570341
0.0064472042239161545     629.4405809857379
0.0066263399687470585     629.595496333366
0.00680458486268183       629.7596784999188
0.0069822930964438265     629.9331274853961
0.007159822072881748      630.1158432897979
0.007337530276402798      630.3078259131241
0.007515775110037768      630.5090753553748
0.007694910764868775      630.7195916165499
0.007875286184317232      630.9393746966496
0.008046142116827224      631.216698620499
0.008215940175191578      631.4862067230872
0.008384978561345261      631.7478990044145
0.008553559508611747      632.0017754644807
0.008721987712864422      632.2478361032857
0.008890568698188937      632.48608092083
0.00905960716025268       632.716509917113
0.009229405331972688      632.9391230921348
0.009400261414687729      633.1539204458957
0.009571115435747398      633.4777071301506
0.009740911572891598      633.7718372718114
0.009909948019402086      634.0363108708784
0.010078526999976944      634.2711279273515
0.010246953201968763      634.4762884412307
0.010415532141122159      634.651792412516
0.010584568505013912      634.7976398412072
0.010754364518784467      634.9138307273047
0.010925218376364454      635.0003650708081
0.011105591682722255      635.1639605186529
0.01128472526622686       635.2813891903467
0.011462968058774099      635.3526510858899
0.011640674239628768      635.3777462052823
0.011818201199823401      635.356674548524
0.01199590741170419       635.2894361156149
0.012174150266116847      635.176030906555
0.012353283941958112      635.0164589213443
0.012533657370585264      634.8107201599829
0.01271403176453574       634.7635715392897
0.012893166387683227      634.6626667060976
0.013071410176518557      634.5080056604073
0.013249117315197753      634.2995884022184
0.013426645199902413      634.037414931531
0.013604352308338922      633.721485248345
0.01378259603687098       633.3517993526605
0.013961730570013379      632.9283572444773
0.014142104844781908      632.4511589237957
0.014312959944399205      632.0422259416301
0.014482757184992078      631.6092934670729
0.014651794764271453      631.1523615001242
0.014820374911240972      630.6714300407841
0.014988802317395246      630.1664990890523
0.01515738250242126       629.6375686449292
0.015326420157607648      629.0846387084141
0.015496217511551624      628.5077092795077
0.015667072761367945      627.9067803582099
0.01583792791479403       627.3783761951198
0.016007725163749622      626.8584087669736
0.01617676270725794       626.3468780737718
0.01634534277588875       625.8437841155139
0.016513770062946447      625.3491268922002
0.01668235009015449       624.8629064038304
0.016851387551041475      624.3851226504047
0.017021184676619543      623.9157756319231
0.017192039666560827      623.4548653483856
0.017372413817338207      623.0697685142103
0.017551548228302124      622.7122305658984
0.017729791836073705      622.3822515034507
0.017907498824762332      622.0798313268667
0.018085026590318725      621.8049700361466
0.018262733610032132      621.5576676312902
0.018440977279666457      621.3379241122977
0.018620111782963036      621.1457394791688
0.018800486056004474      620.981113731904
0.018980860449944497      621.0601469744604
0.019159995073081745      621.1720766551309
0.019338238861906984      621.3169027739159
0.01951594600057618       621.494625330815
0.019693473885270874      621.7052443258283
0.019871180993697383      621.948759758956
0.020049424722219357      622.2251716301979
0.02022855925535152       622.534479939554
0.0204089335301096        622.8766846870244
0.02057978862980686       623.2795765345904
0.020749585870478253      623.6865020071242
0.020918623449835097      624.0974611046258
0.021087203596881453      624.5124538270953
0.021255631003112355      624.9314801745326
0.021424211188215206      625.3545401469377
0.021593248843479067      625.7816337443104
0.021763046197501558      626.212760966651
0.02193390144739785       626.6479218139594
0.022104756600747556      627.2194455443406
0.02227455384962815       627.7657459833662
0.02244359139306247       628.2868231310364
0.022612171461619885      628.7826769873511
0.022780598748604386      629.2533075523105
0.022949178775739036      629.6987148259144
0.02311821623655202       630.1188988081627
0.023288013362055097      630.5138594990557
0.023458868351919994      630.8835968985932
0.02363924250270423       631.3185640337921
0.023818376913674867      631.7070787942246
0.023996620521453065      632.0491411798912
0.02417432751014825       632.3447511907918
0.02435185527571118       632.5939088269262
0.024529562295431146      632.7966140882945
0.02470780596507209       632.9528669748968
0.024886940468375387      633.0626674867328
0.025067314741423676      633.1260156238029
