% Model:              brazing.mph
% Version:            COMSOL 5.3.0.223
% Date:               Oct 20 2018, 01:28
% Dimension:          1
% Nodes:              225
% Expressions:        1
% Description:        Line graph
% x                       Height
0                         660.7213873804635
2.3022181212578358E-4     660.5723538795637
4.5999325066962656E-4     660.4001674961377
6.894940081029028E-4      660.2048282301853
9.189044129547812E-4      659.9863360817067
0.001148405006736289      659.7446910507019
0.0013781761183620641     659.4798931371705
0.001608397441069865      659.1919423411131
0.001839314118928521      658.4872494980617
0.0020697760201574002     657.7894912618741
0.002299964597801726      657.0986676325502
0.0025300619515304015     656.4147786100899
0.0027602503975112853     655.7378241944936
0.0029907120357255193     655.0678043857605
0.003221628319839081      654.4047191838913
0.0034518885683530987     653.5196918494009
0.0036816980188178403     652.6249919673243
0.003911236592567028      651.7206195376614
0.004140684848157368      650.8065745604121
0.004370223557282477      649.8828570355768
0.004600033278179856      648.9494669631548
0.004830293931548535      648.0064043431469
0.005060048526376791      646.8850358448117
0.005289355629682316      645.7754461684034
0.005518393850920054      644.6776353139221
0.005747342428834         643.5916032813678
0.00597638081262499       642.5173500707408
0.006205688240655705      641.4548756820404
0.006435443321622868      640.4041801152673
0.006665339619110656      639.2790725283937
0.006894787442849326      638.1735793746905
0.007123965728649401      637.0877006541574
0.007353054043912613      636.0214363667947
0.007582232167524012      634.9747865126025
0.007811679667266285      633.9477510915801
0.008041575479707366      632.9403301037285
0.008271887219609135      631.9317407225554
0.008501747728772392      630.9585065022744
0.008731337046705121      630.0206274428854
0.008960835851156599      629.1181035443883
0.009190425033567954      628.2509348067833
0.009420285272008154      627.4191212300701
0.009650596606620833      626.622662814249
0.009881512912836019      625.858104254825
0.010111974573021956      625.142918229084
0.010342163040896366      624.4771047370263
0.010572260416492441      623.8606637786518
0.010802449016030204      623.2935953539608
0.011032910939230619      622.7758994629526
0.011263827639190652      622.3075761056278
0.011494048967061755      621.8632120731017
0.011723820083820682      621.4966060361851
0.011953320682717213      621.2077579948776
0.012182731092678062      620.9966679491796
0.012412231855226382      620.8633358990911
0.012642003298903411      620.8077618446117
0.012872225116192546      620.8299457857418
0.013102446994778118      620.6834438967704
0.013332218499393473      620.6383480613582
0.01356171932266464       620.694658279505
0.013791129793276359      620.8523745512109
0.01402063045289555       621.1114968764762
0.014250401630592404      621.4720252553002
0.014480623019759359      621.9339596876835
0.014711539835704642      622.2026827743235
0.014942001874208778      622.5578240252049
0.015172190588640395      622.9993834403276
0.01540228807899374       623.5273610196919
0.015632476661762654      624.1417567632976
0.015862938437253588      624.8425706711445
0.01609385485945594       625.629802743233
0.016324115336228646      626.3205936904047
0.016553925013622208      627.0508505281705
0.016783463813500554      627.8205732565301
0.017012912294953733      628.6297618754837
0.01724245123020976       629.4784163850316
0.01747226117803945       630.366536785173
0.017702522059672054      631.2941230759086
0.017932276794613372      632.2291514257294
0.018161584037218948      633.1893344895474
0.018390622397267263      634.1746722673621
0.018619571113827754      635.185164759174
0.018848609636427344      636.2208119649832
0.019077917203754128      637.281613884789
0.019307672424828403      638.3675705185921
0.019537568573699274      639.365022940615
0.01976701624968263       640.3764562249902
0.019996194388245302      641.4018703717175
0.020225282556443316      642.441265380797
0.020454460532815345      643.4946412522289
0.02068390788479834       644.5619979860129
0.020913803548616574      645.6433355821492
0.02114411498977932       646.517981991629
0.021373975201947604      647.4042463980198
0.02160356422393484       648.3021288013211
0.02183306273279162       649.2116292015334
0.02206265161925901       650.1327475986568
0.02229251156070728       651.0654839926906
0.02252282259658549       652.0098383836355
0.022753738766914562      652.6289209766474
0.022984200292012823      653.2484296439775
0.023214388625279938      653.8683643856259
0.023444485866429166      654.4887252015926
0.023674674331359946      655.109512091878
0.023905136119473275      655.7307250564811
0.024136052683548088      656.3523640954028
0.024366274021741702      656.5708763301309
0.024596045148762867      656.7921149214795
0.024825545757885373      657.0160798694494
0.02505495617806012       657.2427711740401
0.02528445695083446       657.4721888352519
0.025514228404773787      657.7043328530843
0.025744450232385536      657.939203227538
0.025974672267095825      657.7892218838443
0.026204443926923768      657.6219138876412
0.02643394490485871       657.4372792389289
0.02666335552995085       657.2353179377072
0.026892856344233315      657.0160299839768
0.02712262767714175       656.7794153777365
0.02735284922243193       656.5254741189874
0.027583766528201624      655.8485167461977
0.027814229053652367      655.1664437071406
0.028044418253299775      654.4792550018161
0.02827451622829193       653.7869506302242
0.028504705296278778      653.089530592365
0.028735167558720572      652.3869948882383
0.028966084470753738      651.6793435178444
0.029196345605491433      650.7966226863168
0.02942615593701711       649.8822434415301
0.02965569538872289       648.9362057834845
0.029885144521236064      647.95850971218
0.030114684108324883      646.9491552276166
0.030344494710297387      645.908142329794
0.030574756249911007      644.8354710187127
0.030804511377321087      643.6769678128674
0.031033819010118435      642.5087712541872
0.031262857758987544      641.3308813426721
0.03149180686390927       640.1432980783225
0.031720845775323685      638.9460214611382
0.031950153732830305      637.7390514911189
0.032179909346355486      636.5223881682649
0.0324098051544111        635.3259570435139
0.032639252491552244      634.1363906537658
0.03286843029245836       632.9536889990212
0.0330975181233935        631.7778520792798
0.03332669576210278       630.6088798945419
0.03355614277523119       629.446772444807
0.033786038098215655      628.2915297300756
0.034016348759356954      627.1942257043537
0.03424620819605658       626.1312275913386
0.034475796445315066      625.1025353910303
0.03470529418235937       624.1081491034288
0.03493488229610333       623.1480687285343
0.035164741462093585      622.2222942663462
0.03539505171796626       621.3308257168651
0.035625967353597694      620.5080868018706
0.03585642834714083       619.7416501541751
0.036086616150743635      619.0315157737784
0.03631671286286018       618.3776836606806
0.03654690079812825       617.7801538148822
0.036777362054689705      617.238926236382
0.03700827808407173       616.7540009251811
0.03723849938140827       616.3234962628369
0.03746827046781093       615.9774617263068
0.03769777103645843       615.7158973155907
0.03792718141620601       615.5388030306887
0.0381566821485052        615.4461788716008
0.03838645356182577       615.4380248383267
0.03861667534858004       615.5143409308668
0.038846895274787324      615.4730961629391
0.039076664838430766      615.5385495769657
0.03930616372759302       615.7107011729461
0.03953557226638858       615.9895509508806
0.039765070991905134      616.3750989107695
0.039994840228642616      616.8673450526119
0.040225059665450036      617.4662893764086
0.04045597761776665       617.9277710443209
0.04068644078597457       618.4772804387716
0.04091663062609736       619.1148175597604
0.041146729240799984      619.8403824072873
0.04137691894925231       620.6539749813528
0.04160738185443156       621.5555952819561
0.04183829941298208       622.5452433090978
0.04206856149768976       623.4717755931233
0.04229837277362926       624.4355107657167
0.04252791316640542       625.4364488268776
0.04275736323887129       626.4745897766065
0.04298690376702529       627.5499336149034
0.04321671531340127       628.6624803417677
0.04344697780296935       629.8122299572001
0.043676731016186174      631.0252548788976
0.04390603674591497       632.2468271421823
0.04413507359840861       633.4769467470541
0.04436402080919017       634.7156136935132
0.044593057824233256      635.9628279815598
0.04482236387867965       637.2185896111934
0.045052117578024006      638.4828985824142
0.045282012653644836      639.7600375488404
0.045511459262636354      641.020576014647
0.04574063633797325       642.2645139798343
0.04596972344420469       643.4918514444022
0.046198900357357554      644.702588408351
0.046428346642361965      645.89672487168
0.04665824123294997       647.0742608343899
0.04688855484177433       648.171435718698
0.04711841720894409       649.2456721805573
0.04734800837831597       650.2969702199673
0.04757750903201372       651.3253298369282
0.047807100065861544      652.3307510314402
0.04803696216230292       653.313233803503
0.04826727536583021       654.2727781531166
0.048498193048686675      655.0266764546557
0.048728656077441146      655.7551375797073
0.04895884590902903       656.4581615282711
0.04918894464672031       657.1357483003478
0.04941913460997818       657.7878978959375
0.04964959790176041       658.4146103150392
0.04988051597838159       659.0158855576539
0.05011073543954296       659.2867288203404
0.0503405047004922        659.5485053679795
0.05057000345013497       659.8012152005712
0.05079941201302823       660.0448583181153
0.05102891092631677       660.2794347206124
0.05125868051417213       660.5049444080615
0.051488900464733596      660.7213873804635
