% Model:              brazing.mph
% Version:            COMSOL 5.3.0.223
% Date:               Oct 20 2018, 00:10
% Dimension:          1
% Nodes:              193
% Expressions:        1
% Description:        Line graph
% x                       Height
0                         620.3017913158253
1.6028433640637486E-4     620.3808864735305
3.201839556876346E-4      620.4529962796779
4.7982673004648776E-4     620.5181207342678
6.393411493738095E-4      620.5762598372997
7.988560137323205E-4      620.6274135887741
9.58500122107595E-4       620.6715819886907
0.0011184019611720658     620.7087650370497
0.0012786893978073315     620.7389627338509
0.0014692881782178572     620.7627741970181
0.0016592398034323465     620.7699712035759
0.0018487589083489172     620.7605537535245
0.00203806159906999       620.7345218468636
0.0022273647228667317     620.6918754835934
0.0024168851255237504     620.632614663714
0.002606838908709185      620.5567393872251
0.0027974407000143733     620.464249654127
0.003000214284638094      620.3452986973729
0.0032022105766743216     620.2107805557334
0.003403687017647933      620.0606952292086
0.0036049030444305387     619.8950427177987
0.0038061191011872996     619.7138230215035
0.004007595631967136      619.5170361403231
0.00420959207329518       619.3046820742574
0.00441236586612622       619.0767608233064
0.004615139632985625      618.8172149320928
0.004817136048636202      618.554361281245
0.005018612553936322      618.2881998707625
0.005219828585313435      618.0187307006456
0.005421044586718146      617.7459537708942
0.0056225210022172924     617.4698690815081
0.005824517268584787      617.1904766324877
0.006027290827249049      616.9077764238328
0.006217890949519272      616.6141696384672
0.006407844130704021      616.338440178087
0.0065973647866391935     616.0805880426923
0.00678666880286996       615.8406132322829
0.006975972806121895      615.6185157468589
0.007165493423165078      615.4142955864204
0.007355446539677438      615.2279527509673
0.007546046571713631      615.0594872404996
0.00770633524869351       614.9332793788845
0.007866237248851195      614.8245456872547
0.008025880956992212      614.73328616561
0.008185395381580456      614.6595008139504
0.008344909844757132      614.6031896322761
0.008504553668569658      614.5643526205868
0.008664455861201733      614.5429897788825
0.008824744806995652      614.5391011071636
0.008985029143401957      614.5545499489161
0.009144928762683142      614.5913024115715
0.009304571537041926      614.6493584951298
0.009464085956369179      614.7287181995911
0.00962360082072762       614.8293815249552
0.009783244929102828      614.9513484712224
0.009943146768167231      615.0946190383925
0.010103434204802428      615.2591932264654
0.010294032985212885      615.449438941574
0.010483984610427306      615.6590469650527
0.01067350371534381       615.8880172969008
0.010862806406064813      616.1363499371188
0.011052109529861487      616.4040448857065
0.011241629932518437      616.691102142664
0.011431583715703804      616.9975217079913
0.011622185507008923      617.3233035816883
0.011824959091632737      617.643940275478
0.012026955383669057      617.9575323926193
0.012228431824642762      618.264079933112
0.01242964785142546       618.5635828969564
0.012630863908182311      618.8560412841523
0.012832340438962243      619.1414550946998
0.01303433688029038       619.4198243285989
0.013237110673121513      619.6911489858495
0.013439884439981065      619.9337704704947
0.013641880855631786      620.1572692221921
0.013843357360932049      620.3616452409422
0.014044573392309304      620.5468985267446
0.014245789393714157      620.7130290795996
0.014447265809213447      620.8600368995069
0.014649262075581083      620.9879219864667
0.01485203563424549       621.0966843404791
0.015042635756515686      621.1870290828645
0.015232588937700405      621.2609637096074
0.015422109593635547      621.3184882207083
0.015611413609866287      621.3596026161667
0.015800717613118194      621.3843068959831
0.01599023823016135       621.392601060157
0.01618019134667368       621.3844851086886
0.016370791378709844      621.3599590415781
0.016531080055689654      621.3132721358816
0.01669098205584727       621.2633965788582
0.016850625763988217      621.2103323705084
0.017010140188576394      621.1540795108316
0.017169654651752998      621.0946379998283
0.017329298475565455      621.0320078374981
0.017489200668197463      620.9661890238413
0.01764948961399131       620.8971815588577
0.01780977395039525       620.7965917259147
0.017969673569674088      620.6844893096285
0.018129316344030533      620.5608743099988
0.01828883076335545       620.4257467270259
0.01844834562771156       620.2791065607095
0.01860798973608443       620.1209538110498
0.018767891575146484      619.9512884780468
0.018928179011779317      619.7701105617003
0.019118777792188433      619.496396020414
0.019308729417401523      619.2008321622114
0.019498248522316707      618.883418987093
0.019687551213036395      618.5441564950585
0.019876854336831753      618.183044686108
0.02006637473948738       617.8000835602414
0.020256328522671414      617.3952731174588
0.020446930313975188      616.9686133577602
0.02064970389860279       616.4539733249736
0.02085170019064286       615.9269574087757
0.02105317663162028       615.3875656091662
0.02125439265840668       614.8357979261456
0.021455608715167235      614.2716543597135
0.02165708524595088       613.6951349098699
0.021859081687282764      613.106239576615
0.02206185548011769       612.5049683599489
0.022264629246980954      611.9029957147047
0.022466625662635346      611.3133611705027
0.022668102167939252      610.7360647273426
0.022869318199320136      610.1711063852246
0.023070534200728618      609.6184861441484
0.023272010616231548      609.0782040041144
0.023474006882602858      608.5502599651222
0.02367678044127098       608.0346540271721
0.02386738056353977       607.5372768975448
0.024057333744723106      607.0739003721442
0.02424685440065687       606.644524450971
0.024436158416886237      606.2491491340246
0.02462546242013677       605.8877744213054
0.024814983037178547      605.5604003128132
0.025004936153689494      605.267026808548
0.025195536185724256      605.00765390851
0.0253558248627017        604.7856467690626
0.025515726862856965      604.5926602162765
0.025675370570995573      604.4286942501516
0.02583488499558142       604.2937488706879
0.02599439945875569       604.1878240778854
0.02615404328256581       604.1109198717442
0.026313945475195465      604.063036252264
0.026474234420986946      604.0441732194452
0.026634518757392422      604.0490332408124
0.02679441837667279       604.0796614405837
0.026954061151030752      604.1360578187588
0.02711357557035719       604.2182223753379
0.027273090434714816      604.3261551103209
0.027432734543089202      604.459856023708
0.027592636382152785      604.619325115499
0.02775292381878715       604.8045623856939
0.02794352259919713       605.0360617928518
0.02813347422441108       605.3004927872063
0.028322993329327112      605.5978553687576
0.028512296020047647      605.9281495375054
0.02870159914384385       606.2913752934501
0.028891119546500334      606.6875326365914
0.02908107332968523       607.1166215669294
0.029271675120989875      607.5786420844641
0.02947444870561504       608.0845782966883
0.029676444997652693      608.6023934455343
0.02987792143862772       609.1320875310018
0.030079137465411736      609.6736605530913
0.030280353522169904      610.2271125118025
0.030481830052951155      610.7924434071355
0.030683826494280624      611.3696532390903
0.030886600287113104      611.9587420076668
0.03108937405397396       612.534941208838
0.03129137046962597       613.1043407531134
0.03149284697492751       613.6669406404934
0.03169406300630604       614.2227408709778
0.03189527900771217       614.7717414445665
0.03209675542321274       615.3139423612598
0.03229875168958166       615.8493436210574
0.03250152524824737       616.3779452239595
0.03269212537051706       616.8088384925996
0.03288207855170127       617.2156343232801
0.033071599207635916      617.598332716001
0.033260903223866156      617.9569336707623
0.033450207227117564      618.2914371875639
0.033639727844160215      618.6018432664058
0.03382968096067204       618.8881519072881
0.034020280992707694      619.1503631102108
0.034180569669686675      619.3365680879094
0.03434047166984347       619.5106940793232
0.0345001153779836        619.6727410844522
0.03465962980257096       619.8227091032965
0.03481914426574675       619.9605981358559
0.034978788089558385      620.0864081821304
0.03513869028218957       620.2001392421203
0.035298979227982585      620.3017913158253
