% Model:              brazing.mph
% Version:            COMSOL 5.3.0.223
% Date:               Oct 20 2018, 02:41
% Dimension:          1
% Nodes:              145
% Expressions:        1
% Description:        Line graph
% x                       Height
0                         615.3986132577772
1.8037553861809572E-4     615.6640841625493
3.5951128344368776E-4     615.8746978832515
5.377561773732229E-4      616.0304544198839
7.154644111300318E-4      616.1313537724466
8.929933875627798E-4      616.1773959409393
0.0010707015910786408     616.1685809253623
0.0012489464247083767     616.1049087257153
0.0014280820795340731     615.9863793419985
0.0016084574989771061     615.812992774212
0.0017793134314883058     615.7474554572029
0.0019491114898538484     615.6568129347604
0.002118149876008701      615.5410652068849
0.0022867308232763497     615.4002122735762
0.002455159027530182      615.2342541348343
0.0026237400128558564     615.0431907906592
0.0027927784749207734     614.8270222410508
0.0029625766466419693     614.5857484860093
0.0031334327293582195     614.3193695255346
0.0033042867504275058     614.1470254814338
0.0034740828875811486     613.968936502098
0.0036431193341009516     613.7851025875271
0.0038116983146850476     613.5955237377215
0.003980124516686077      613.4001999526807
0.004148703455848711      613.199131232405
0.004317739819749776      612.9923175768943
0.004487535833529769      612.7797589861484
0.004658389691119368      612.5614554601677
0.0048387629974717405     612.4420912312688
0.005017896580971026      612.3264078851867
0.005196139373513023      612.2144054219215
0.0053738455543625        612.1060838414729
0.005551372514551955      612.0014431438411
0.005729078726427549      611.9004833290263
0.005907321580834967      611.8032043970283
0.006086455256670912      611.709606347847
0.006266828685292636      611.6196891814825
0.0064472042239161545     611.7711217309695
0.0066263399687470585     611.9296355070094
0.00680458486268183       612.095230509602
0.0069822930964438265     612.2679067387475
0.007159822072881748      612.4476641944457
0.007337530276402798      612.6345028766967
0.007515775110037768      612.8284227855005
0.007694910764868775      613.0294239208571
0.007875286184317232      613.2375062827665
0.008046142116827224      613.5076345396419
0.008215940175191578      613.7686933170116
0.008384978561345261      614.0206826148763
0.008553559508611747      614.2636024332355
0.008721987712864422      614.4974527720894
0.008890568698188937      614.7222336314379
0.00905960716025268       614.9379450112812
0.009229405331972688      615.1445869116188
0.009400261414687729      615.3421593324514
0.009571115435747398      615.6619153758144
0.009740911572891598      615.951534426293
0.009909948019402086      616.2110164838879
0.010078526999976944      616.4403615485987
0.010246953201968763      616.6395696204254
0.010415532141122159      616.8086406993681
0.010584568505013912      616.9475747854265
0.010754364518784467      617.056371878601
0.010925218376364454      617.1350319788914
0.011105591682722255      617.2967473798493
0.01128472526622686       617.4120643495656
0.011462968058774099      617.4809828880409
0.011640674239628768      617.5035029952749
0.011818201199823401      617.4796246712675
0.01199590741170419       617.4093479160189
0.012174150266116847      617.2926727295289
0.012353283941958112      617.1295991117977
0.012533657370585264      616.9201270628251
0.01271403176453574       616.8928760238631
0.012893166387683227      616.8108597135904
0.013071410176518557      616.6740781320071
0.013249117315197753      616.4825312791136
0.013426645199902413      616.2362191549091
0.013604352308338922      615.9351417593942
0.01378259603687098       615.5792990925688
0.013961730570013379      615.1686911544325
0.014142104844781908      614.703317944986
0.014312959944399205      614.3109367209511
0.014482757184992078      613.8940703486079
0.014651794764271453      613.4527188279567
0.014820374911240972      612.9868821589974
0.014988802317395246      612.49656034173
0.01515738250242126       611.9817533761544
0.015326420157607648      611.4424612622706
0.015496217511551624      610.8786840000786
0.015667072761367945      610.2904215895787
0.01583792791479403       609.785680291468
0.016007725163749622      609.2879120386323
0.01617676270725794       608.7971168310719
0.01634534277588875       608.3132946687867
0.016513770062946447      607.8364455517769
0.01668235009015449       607.3665694800422
0.016851387551041475      606.9036664535826
0.017021184676619543      606.4477364723983
0.017192039666560827      605.9987795364892
0.017372413817338207      605.632953117788
0.017551548228302124      605.2915838648094
0.017729791836073705      604.9746717775539
0.017907498824762332      604.6822168560212
0.018085026590318725      604.4142191002113
0.018262733610032132      604.1706785101244
0.018440977279666457      603.9515950857602
0.018620111782963036      603.756968827119
0.018800486056004474      603.5867997342006
0.018980860449944497      603.6787078499895
0.019159995073081745      603.8007663496277
0.019338238861906984      603.9529752331157
0.01951594600057618       604.1353345004535
0.019693473885270874      604.3478441516406
0.019871180993697383      604.5905041866777
0.020049424722219357      604.8633146055641
0.02022855925535152       605.1662754083002
0.0204089335301096        605.4993865948859
0.02057978862980686       605.8971287151819
0.020749585870478253      606.2967460009967
0.020918623449835097      606.6982384523303
0.021087203596881453      607.1016060691829
0.021255631003112355      607.5068488515542
0.021424211188215206      607.9139667994443
0.021593248843479067      608.3229599128532
0.021763046197501558      608.7338281917808
0.02193390144739785       609.1465716362275
0.022104756600747556      609.7103400339784
0.02227455384962815       610.2478797638166
0.02244359139306247       610.7591908257427
0.022612171461619885      611.2442732197563
0.022780598748604386      611.7031269458575
0.022949178775739036      612.1357520040466
0.02311821623655202       612.542148394323
0.023288013362055097      612.922316116687
0.023458868351919994      613.2762551711388
0.02363924250270423       613.7009266292443
0.023818376913674867      614.0783846141189
0.023996620521453065      614.4086291257628
0.02417432751014825       614.6916601641757
0.02435185527571118       614.9274777293576
0.024529562295431146      615.116081821309
0.02470780596507209       615.2574724400292
0.024886940468375387      615.3516495855187
0.025067314741423676      615.3986132577772
