% Model:              brazing.mph
% Version:            COMSOL 5.3.0.223
% Date:               Oct 20 2018, 01:36
% Dimension:          1
% Nodes:              193
% Expressions:        1
% Description:        Line graph
% x                       Height
0                         626.7651195271042
1.6028433640637486E-4     626.846236907455
3.201839556876346E-4      626.920200703512
4.7982673004648776E-4     626.9870109152747
6.393411493738095E-4      627.0466675427433
7.988560137323205E-4      627.0991705859178
9.58500122107595E-4       627.1445200447982
0.0011184019611720658     627.1827159193846
0.0012786893978073315     627.2137582096767
0.0014692881782178572     627.2387433876974
0.0016592398034323465     627.2470573050272
0.0018487589083489172     627.2386999616664
0.00203806159906999       627.2136713576148
0.0022273647228667317     627.1719714928724
0.0024168851255237504     627.1136003674393
0.002606838908709185      627.0385579813154
0.0027974407000143733     626.9468443345008
0.003000214284638094      626.822173236599
0.0032022105766743216     626.6818594805483
0.003403687017647933      626.5259030663486
0.0036049030444305387     626.3543039940001
0.0038061191011872996     626.1670622635028
0.004007595631967136      625.9641778748564
0.00420959207329518       625.7456508280612
0.00441236586612622       625.5114811231172
0.004615139632985625      625.24511442916
0.004817136048636202      624.9751752589896
0.005018612553936322      624.7016636126059
0.005219828585313435      624.424579490009
0.005421044586718146      624.1439228911988
0.0056225210022172924     623.8596938161755
0.005824517268584787      623.571892264939
0.006027290827249049      623.2805182374892
0.006217890949519272      622.9747707731381
0.006407844130704021      622.6879578716644
0.0065973647866391935     622.4200795330678
0.00678666880286996       622.1711357573485
0.006975972806121895      621.9411265445063
0.007165493423165078      621.7300518945414
0.007355446539677438      621.5379118074537
0.007546046571713631      621.3647062832433
0.00770633524869351       621.2355997031669
0.007866237248851195      621.1246013246606
0.008025880956992212      621.0317111477245
0.008185395381580456      620.9569291723586
0.008344909844757132      620.9002553985629
0.008504553668569658      620.8616898263373
0.008664455861201733      620.841232455682
0.008824744806995652      620.8388832865968
0.008985029143401957      620.8563238515782
0.009144928762683142      620.896319796074
0.009304571537041926      620.9588711200843
0.009464085956369179      621.043977823609
0.00962360082072762       621.1516399066481
0.009783244929102828      621.2818573692017
0.009943146768167231      621.4346302112698
0.010103434204802428      621.6099584328523
0.010294032985212885      621.8113424857016
0.010483984610427306      622.0331462242067
0.01067350371534381       622.275369648367
0.010862806406064813      622.538012758183
0.011052109529861487      622.8210755536544
0.011241629932518437      623.1245580347814
0.011431583715703804      623.4484602015638
0.011622185507008923      623.7927820540018
0.011824959091632737      624.1304138049956
0.012026955383669057      624.4602624405758
0.012228431824642762      624.7823279607427
0.01242964785142546       625.0966103654961
0.012630863908182311      625.403109654836
0.012832340438962243      625.7018258287626
0.01303433688029038       625.9927588872758
0.013237110673121513      626.2759088303756
0.013439884439981065      626.530994491415
0.013641880855631786      626.7659504683451
0.013843357360932049      626.9807767611655
0.014044573392309304      627.1754733698765
0.014245789393714157      627.3500402944779
0.014447265809213447      627.5044775349699
0.014649262075581083      627.6387850913524
0.01485203563424549       627.7529629636252
0.015042635756515686      627.8458849884445
0.015232588937700405      627.9220385492202
0.015422109593635547      627.9814236459522
0.015611413609866287      628.0240402786407
0.015800717613118194      628.0498884472855
0.01599023823016135       628.0589681518867
0.01618019134667368       628.0512793924443
0.016370791378709844      628.0268221689582
0.016531080055689654      627.9789170455086
0.01669098205584727       627.9277176356971
0.016850625763988217      627.8732239395242
0.017010140188576394      627.8154359569895
0.017169654651752998      627.7543536880931
0.017329298475565455      627.6899771328351
0.017489200668197463      627.6223062912154
0.01764948961399131       627.5513411632339
0.01780977395039525       627.4485583297441
0.017969673569674088      627.3338366190247
0.018129316344030533      627.207176031076
0.01828883076335545       627.0685765658978
0.01844834562771156       626.9180382234904
0.01860798973608443       626.7555610038534
0.018767891575146484      626.5811449069871
0.018928179011779317      626.3947899328913
0.019118777792188433      626.1114905076415
0.019308729417401523      625.8054719686546
0.019498248522316707      625.4767343159302
0.019687551213036395      625.1252775494688
0.019876854336831753      624.7511016692702
0.02006637473948738       624.3542066753341
0.020256328522671414      623.934592567661
0.020446930313975188      623.4922593462506
0.02064970389860279       622.9568248242823
0.02085170019064286       622.4080550025527
0.02105317663162028       621.8459498810614
0.02125439265840668       621.2705094598087
0.021455608715167235      620.6817337387946
0.02165708524595088       620.0796227180189
0.021859081687282764      619.4641763974815
0.02206185548011769       618.8353947771828
0.022264629246980954      618.2078453373932
0.022466625662635346      617.5928324511831
0.022668102167939252      616.9903561185523
0.022869318199320136      616.4004163395011
0.023070534200728618      615.8230131140294
0.023272010616231548      615.258146442137
0.023474006882602858      614.7058163238241
0.02367678044127098       614.1660227590908
0.02386738056353977       613.6438566004405
0.024057333744723106      613.157324964342
0.02424685440065687       612.7064278507952
0.024436158416886237      612.2911652598002
0.02462546242013677       611.9115371913568
0.024814983037178547      611.5675436454653
0.025004936153689494      611.2591846221254
0.025195536185724256      610.9864601213372
0.0253558248627017        610.7519857452752
0.025515726862856965      610.547912395193
0.025675370570995573      610.3742400710901
0.02583488499558142       610.2309687729669
0.02599439945875569       610.1180985008232
0.02615404328256581       610.035629254659
0.026313945475195465      609.9835610344744
0.026474234420986946      609.9618938402695
0.026634518757392422      609.9651405259824
0.02679441837667279       609.9951744716685
0.026954061151030752      610.0519956773279
0.02711357557035719       610.1356041429605
0.027273090434714816      610.2459998685664
0.027432734543089202      610.3831828541453
0.027592636382152785      610.5471530996977
0.02775292381878715       610.7379106052232
0.02794352259919713       610.9758206560408
0.02813347422441108       611.2481054305397
0.028322993329327112      611.5547649287201
0.028512296020047647      611.895799150582
0.02870159914384385       612.2712080961253
0.028891119546500334      612.68099176535
0.02908107332968523       613.1251501582561
0.029271675120989875      613.6036832748437
0.02947444870561504       614.1284168999013
0.029676444997652693      614.6651606931524
0.02987792143862772       615.213914654597
0.030079137465411736      615.7746787842353
0.030280353522169904      616.3474530820672
0.030481830052951155      616.9322375480924
0.030683826494280624      617.5290321823113
0.030886600287113104      618.1378369847238
0.03108937405397396       618.7345422935443
0.03129137046962597       619.3248822654863
0.03149284697492751       619.9088569005498
0.03169406300630604       620.4864661987348
0.03189527900771217       621.0577101600412
0.03209675542321274       621.622588784469
0.03229875168958166       622.1811020720183
0.03250152524824737       622.7332500226892
0.03269212537051706       623.1755452407717
0.03288207855170127       623.593289267651
0.033071599207635916      623.986482103327
0.033260903223866156      624.3551237478
0.033450207227117564      624.6992142010697
0.033639727844160215      625.0187534631362
0.03382968096067204       625.3137415339996
0.034020280992707694      625.5841784136599
0.034180569669686675      625.7756188459813
0.03434047166984347       625.9545384802624
0.0345001153779836        626.1209373165033
0.03465962980257096       626.274815354704
0.03481914426574675       626.4161725948644
0.034978788089558385      626.5450090369845
0.03513869028218957       626.6613246810645
0.035298979227982585      626.7651195271042
