% Model:              brazing.mph
% Version:            COMSOL 5.3.0.223
% Date:               Oct 20 2018, 02:21
% Dimension:          1
% Nodes:              193
% Expressions:        1
% Description:        Line graph
% x                       Height
0                         642.6723559869902
1.6028433640637486E-4     642.7536108270588
3.201839556876346E-4      642.8276554516649
4.7982673004648776E-4     642.894489860809
6.393411493738095E-4      642.9541140544907
7.988560137323205E-4      643.0065280327101
9.58500122107595E-4       643.0517317954672
0.0011184019611720658     643.089725342762
0.0012786893978073315     643.1205086745946
0.0014692881782178572     643.1444232617562
0.0016592398034323465     643.1507547263121
0.0018487589083489172     643.1395030682626
0.00203806159906999       643.1106682876076
0.0022273647228667317     643.0642503843471
0.0024168851255237504     643.0002493584814
0.002606838908709185      642.91866521001
0.0027974407000143733     642.8194979389332
0.003000214284638094      642.689007687785
0.0032022105766743216     642.5421073312895
0.003403687017647933      642.3787968694467
0.0036049030444305387     642.1990763022566
0.0038061191011872996     642.0029456297192
0.004007595631967136      641.7904048518345
0.00420959207329518       641.5614539686025
0.00441236586612622       641.3160929800232
0.004615139632985625      641.0360659317579
0.004817136048636202      640.7523060120951
0.005018612553936322      640.4648132210344
0.005219828585313435      640.1735875585762
0.005421044586718146      639.8786290247202
0.0056225210022172924     639.5799376194665
0.005824517268584787      639.2775133428152
0.006027290827249049      638.9713561947661
0.006217890949519272      638.6508584769763
0.006407844130704021      638.3501525889949
0.0065973647866391935     638.0692385308224
0.00678666880286996       637.8081163024584
0.006975972806121895      637.5667859039032
0.007165493423165078      637.3452473351565
0.007355446539677438      637.1435005962186
0.007546046571713631      636.9615456870894
0.00770633524869351       636.8262742057142
0.007866237248851195      636.7098727750756
0.008025880956992212      636.6123413951739
0.008185395381580456      636.5336800660089
0.008344909844757132      636.4738887875806
0.008504553668569658      636.432967559889
0.008664455861201733      636.4109163829343
0.008824744806995652      636.4077352567163
0.008985029143401957      636.4258606466933
0.009144928762683142      636.4674555192239
0.009304571537041926      636.5325198743083
0.009464085956369179      636.6210537119463
0.00962360082072762       636.7330570321379
0.009783244929102828      636.8685298348832
0.009943146768167231      637.0274721201823
0.010103434204802428      637.2098838880349
0.010294032985212885      637.4197157325126
0.010483984610427306      637.6509329165916
0.01067350371534381       637.9035354402716
0.010862806406064813      638.1775233035529
0.011052109529861487      638.4728965064354
0.011241629932518437      638.789655048919
0.011431583715703804      639.127798931004
0.011622185507008923      639.4873281526901
0.011824959091632737      639.8406102255278
0.012026955383669057      640.1857870947582
0.012228431824642762      640.5228587603812
0.01242964785142546       640.851825222397
0.012630863908182311      641.1726864808055
0.012832340438962243      641.4854425356066
0.01303433688029038       641.7900933868004
0.013237110673121513      642.086639034387
0.013439884439981065      642.3531786717984
0.013641880855631786      642.5987520675894
0.013843357360932049      642.8233592217595
0.014044573392309304      643.0270001343091
0.014245789393714157      643.209674805238
0.014447265809213447      643.3713832345463
0.014649262075581083      643.5121254222341
0.01485203563424549       643.6319013683012
0.015042635756515686      643.7310559870651
0.015232588937700405      643.8126779980481
0.015422109593635547      643.8767674012504
0.015611413609866287      643.9233241966717
0.015800717613118194      643.9523483843122
0.01599023823016135       643.963839964172
0.01618019134667368       643.9577989362509
0.016370791378709844      643.934225300549
0.016531080055689654      643.885824443299
0.01669098205584727       643.8343606808077
0.016850625763988217      643.7798340130752
0.017010140188576394      643.7222444401012
0.017169654651752998      643.6615919618861
0.017329298475565455      643.5978765784295
0.017489200668197463      643.5310982897317
0.01764948961399131       643.4612570957926
0.01780977395039525       643.3568010508233
0.017969673569674088      643.2400411684721
0.018129316344030533      643.1109774487392
0.01828883076335545       642.9696098916244
0.01844834562771156       642.815938497128
0.01860798973608443       642.6499632652497
0.018767891575146484      642.4716841959895
0.018928179011779317      642.2811012893477
0.019118777792188433      641.9890349002369
0.019308729417401523      641.6732313166438
0.019498248522316707      641.3336905385684
0.019687551213036395      640.9704125660107
0.019876854336831753      640.5833973989709
0.02006637473948738       640.1726450374488
0.020256328522671414      639.7381554814444
0.020446930313975188      639.2799287309579
0.02064970389860279       638.7256182884241
0.02085170019064286       638.1574536233705
0.02105317663162028       637.5754347357971
0.02125439265840668       636.9795616257037
0.021455608715167235      636.3698342930903
0.02165708524595088       635.7462527379572
0.021859081687282764      635.108816960304
0.02206185548011769       634.4575269601311
0.022264629246980954      633.8074300595031
0.022466625662635346      633.17026237807
0.022668102167939252      632.5460239158318
0.022869318199320136      631.9347146727883
0.023070534200728618      631.3363346489397
0.023272010616231548      630.7508838442859
0.023474006882602858      630.178362258827
0.02367678044127098       629.6187698925628
0.02386738056353977       629.077818284528
0.024057333744723106      628.573843842747
0.02424685440065687       628.1068465672199
0.024436158416886237      627.6768264579468
0.02462546242013677       627.2837835149277
0.024814983037178547      626.9277177381623
0.025004936153689494      626.6086291276509
0.025195536185724256      626.3265176833935
0.0253558248627017        626.0842455869316
0.025515726862856965      625.873398250325
0.025675370570995573      625.6939756735735
0.02583488499558142       625.5459778566773
0.02599439945875569       625.4294047996362
0.02615404328256581       625.3442565024505
0.026313945475195465      625.29053296512
0.026474234420986946      625.2682341876446
0.026634518757392422      625.2724446485985
0.02679441837667279       625.3042794966415
0.026954061151030752      625.3637387317729
0.02711357557035719       625.4508223539932
0.027273090434714816      625.5655303633023
0.027432734543089202      625.7078627597001
0.027592636382152785      625.8778195431867
0.02775292381878715       626.0754007137621
0.02794352259919713       626.3228293143909
0.02813347422441108       626.6059216903259
0.028322993329327112      626.9246778415667
0.028512296020047647      627.2790977681135
0.02870159914384385       627.6691814699662
0.028891119546500334      628.0949289471249
0.02908107332968523       628.5563401995895
0.029271675120989875      629.0534152273601
0.02947444870561504       629.5990130250036
0.029676444997652693      630.1569030908355
0.02987792143862772       630.727085424856
0.030079137465411736      631.309560027065
0.030280353522169904      631.9043268974626
0.030481830052951155      632.5113860360487
0.030683826494280624      633.1307374428235
0.030886600287113104      633.7623811177867
0.03108937405397396       634.3805847495678
0.03129137046962597       634.9918801892635
0.03149284697492751       635.5962674368737
0.03169406300630604       636.1937464923984
0.03189527900771217       636.7843173558376
0.03209675542321274       637.3679800271914
0.03229875168958166       637.9447345064596
0.03250152524824737       638.5145807936424
0.03269212537051706       638.9743446779846
0.03288207855170127       639.4081303858957
0.033071599207635916      639.8159379173758
0.033260903223866156      640.1977672724248
0.033450207227117564      640.5536184510427
0.033639727844160215      640.8834914532295
0.03382968096067204       641.1873862789851
0.034020280992707694      641.4653029283095
0.034180569669686675      641.6612817219985
0.03434047166984347       641.8443756124436
0.0345001153779836        642.0145845996446
0.03465962980257096       642.1719086836017
0.03481914426574675       642.3163478643148
0.034978788089558385      642.447902141784
0.03513869028218957       642.566571516009
0.035298979227982585      642.6723559869902
