% Model:              brazing.mph
% Version:            COMSOL 5.3.0.223
% Date:               Oct 20 2018, 01:09
% Dimension:          1
% Nodes:              225
% Expressions:        1
% Description:        Line graph
% x                       Height
0                         661.2373122672635
2.3022181212578358E-4     661.104096856022
4.5999325066962656E-4     660.9467571262896
6.894940081029028E-4      660.7652930780661
9.189044129547812E-4      660.5597047113514
0.001148405006736289      660.3299920261461
0.0013781761183620641     660.0761550224491
0.001608397441069865      659.7981937002614
0.001839314118928521      659.1246321544538
0.0020697760201574002     658.457320044585
0.002299964597801726      657.7962573706549
0.0025300619515304015     657.1414441326634
0.0027602503975112853     656.4928803306109
0.0029907120357255193     655.8505659644968
0.003221628319839081      655.2145010343216
0.0034518885683530987     654.3644470645629
0.0036816980188178403     653.5074019030435
0.003911236592567028      652.6433655497631
0.004140684848157368      651.7723380047216
0.004370223557282477      650.8943192679197
0.004600033278179856      650.0093093393565
0.004830293931548535      649.1173082190326
0.005060048526376791      648.0396076018476
0.005289355629682316      646.9750966545564
0.005518393850920054      645.9237753771588
0.005747342428834         644.8856437696551
0.00597638081262499       643.8607018320454
0.006205688240655705      642.8489495643289
0.006435443321622868      641.8503869665064
0.006665339619110656      640.7697161221915
0.006894787442849326      639.7093139851834
0.007123965728649401      638.6691805554813
0.007353054043912613      637.6493158330858
0.007582232167524012      636.6497198179969
0.007811679667266285      635.6703925102144
0.008041575479707366      634.7113339097383
0.008271887219609135      633.7429391566611
0.008501747728772392      632.8089594111
0.008731337046705121      631.9093946730546
0.008960835851156599      631.0442449425256
0.009190425033567954      630.2135102195127
0.009420285272008154      629.4171905040156
0.009650596606620833      628.6552857960346
0.009881512912836019      627.9181669719442
0.010111974573021956      627.2282408870337
0.010342163040896366      626.585507541303
0.010572260416492441      625.989966934752
0.010802449016030204      625.4416190673813
0.011032910939230619      624.9404639391901
0.011263827639190652      624.4865015501788
0.011494048967061755      624.052646088795
0.011723820083820682      623.6916452325781
0.011953320682717213      623.4034989815285
0.012182731092678062      623.188207335646
0.012412231855226382      623.0457702949309
0.012642003298903411      622.9761878593827
0.012872225116192546      622.9794600290018
0.013102446994778118      622.83336858076
0.013332218499393473      622.7809189948787
0.01356171932266464       622.8221112713579
0.013791129793276359      622.9569454101976
0.01402063045289555       623.185421411398
0.014250401630592404      623.5075392749586
0.014480623019759359      623.92329900088
0.014711539835704642      624.1669253199977
0.014942001874208778      624.4908951780477
0.015172190588640395      624.8952085750295
0.01540228807899374       625.3798655109438
0.015632476661762654      625.9448659857903
0.015862938437253588      626.5902099995687
0.01609385485945594       627.3158975522795
0.016324115336228646      627.9538648791498
0.016553925013622208      628.6301851454756
0.016783463813500554      629.3448583512567
0.017012912294953733      630.0978844964931
0.01724245123020976       630.889263581185
0.01747226117803945       631.7189956053319
0.017702522059672054      632.5870805689343
0.017932276794613372      633.4548608555111
0.018161584037218948      634.3485128407824
0.018390622397267263      635.268036524748
0.018619571113827754      636.213431907408
0.018848609636427344      637.1846989887624
0.019077917203754128      638.1818377688111
0.019307672424828403      639.2048482475543
0.019537568573699274      640.1324679121394
0.01976701624968263       641.076386379476
0.019996194388245302      642.0366036495642
0.020225282556443316      643.0131197224041
0.020454460532815345      644.0059345979956
0.02068390788479834       645.0150482763386
0.020913803548616574      646.0404607574333
0.02114411498977932       646.8538944135335
0.021373975201947604      647.6819022395379
0.02160356422393484       648.5244842354465
0.02183306273279162       649.3816404012591
0.02206265161925901       650.2533707369761
0.02229251156070728       651.1396752425968
0.02252282259658549       652.040553918122
0.022753738766914562      652.6131548433285
0.022984200292012823      653.1898652501818
0.023214388625279938      653.7706851386816
0.023444485866429166      654.3556145088279
0.023674674331359946      654.9446533606211
0.023905136119473275      655.5378016940606
0.024136052683548088      656.1350595091468
0.024366274021741702      656.3289531767923
0.024596045148762867      656.5279224639776
0.024825545757885373      656.7319673707025
0.02505495617806012       656.9410878969671
0.02528445695083446       657.1552840427717
0.025514228404773787      657.3745558081157
0.025744450232385536      657.5989031929995
0.025974672267095825      657.4567744853871
0.026204443926923768      657.2974496674719
0.02643394490485871       657.120928739254
0.02666335552995085       656.9272117007337
0.026892856344233315      656.7162985519108
0.02712262767714175       656.488189292785
0.02735284922243193       656.2428839233568
0.027583766528201624      655.5979538712015
0.027814229053652367      654.9484310500003
0.028044418253299775      654.2943154597531
0.02827451622829193       653.6356071004599
0.028504705296278778      652.9723059721209
0.028735167558720572      652.3044120747358
0.028966084470753738      651.6319254083047
0.029196345605491433      650.7969103033413
0.02942615593701711       649.9335147029042
0.02965569538872289       649.041738606993
0.029885144521236064      648.1215820156079
0.030114684108324883      647.1730449287494
0.030344494710297387      646.1961273464165
0.030574756249911007      645.19082926861
0.030804511377321087      644.0958507180483
0.031033819010118435      642.9935694119606
0.031262857758987544      641.8839853503467
0.03149180686390927       640.7670985332068
0.031720845775323685      639.6429089605411
0.031950153732830305      638.511416632349
0.032179909346355486      637.372621548631
0.0324098051544111        636.2476014089642
0.032639252491552244      635.1305733948435
0.03286843029245836       634.0215375062687
0.0330975181233935        632.92049374324
0.03332669576210278       631.8274421057574
0.03355614277523119       630.7423825938206
0.033786038098215655      629.66531520743
0.034016348759356954      628.6389419788678
0.03424620819605658       627.645917515221
0.034475796445315066      626.6862418164893
0.03470529418235937       625.7599148826729
0.03493488229610333       624.8669367137721
0.035164741462093585      624.0073073097861
0.03539505171796626       623.1810266707158
0.035625967353597694      622.4168192751118
0.03585642834714083       621.7063442772773
0.036086616150743635      621.0496016772124
0.03631671286286018       620.446591474917
0.03654690079812825       619.8973136703914
0.036777362054689705      619.4017682636351
0.03700827808407173       618.9599552546485
0.03723849938140827       618.5685828496448
0.03746827046781093       618.2562026877541
0.03769777103645843       618.0228147689764
0.03792718141620601       617.8684190933118
0.0381566821485052        617.7930156607601
0.03838645356182577       617.7966044713214
0.03861667534858004       617.8791855249958
0.038846895274787324      617.8616958685299
0.039076664838430766      617.9426718158468
0.03930616372759302       618.122113366946
0.03953557226638858       618.4000205218281
0.039765070991905134      618.7763932804932
0.039994840228642616      619.2512316429403
0.040225059665450036      619.8245356091704
0.04045597761776665       620.2796722303729
0.04068644078597457       620.8160920729127
0.04091663062609736       621.4337951367902
0.041146729240799984      622.1327814220051
0.04137691894925231       622.9130509285577
0.04160738185443156       623.7746036564477
0.04183829941298208       624.7174396056752
0.04206856149768976       625.6045522425723
0.04229837277362926       626.5272243899896
0.04252791316640542       627.4854560479266
0.04275736323887129       628.4792472163838
0.04298690376702529       629.5085978953614
0.04321671531340127       630.5735080848586
0.04344697780296935       631.6739777848761
0.043676731016186174      632.8297768115151
0.04390603674591497       633.9944349182878
0.04413507359840861       635.1679521051939
0.04436402080919017       636.3503283722338
0.044593057824233256      637.5415637194076
0.04482236387867965       638.7416581467147
0.045052117578024006      639.9506116541556
0.045282012653644836      641.1654405204098
0.045511459262636354      642.3659017495336
0.04574063633797325       643.5519953415264
0.04596972344420469       644.7237212963888
0.046198900357357554      645.881079614121
0.046428346642361965      647.0240702947222
0.04665824123294997       648.152693338193
0.04688855484177433       649.1961294636625
0.04711841720894409       650.2197051356379
0.04734800837831597       651.2234203541192
0.04757750903201372       652.2072751191065
0.047807100065861544      653.1712694306
0.04803696216230292       654.1154032885989
0.04826727536583021       655.0396766931042
0.048498193048686675      655.7557419876609
0.048728656077441146      656.4501404455461
0.04895884590902903       657.1228720667596
0.04918894464672031       657.7739368513015
0.04941913460997818       658.4033347991722
0.04964959790176041       659.0110659103708
0.04988051597838159       659.5971301848981
0.05011073543954296       659.8534136643426
0.0503405047004922        660.1023732259897
0.05057000345013497       660.3440088698394
0.05079941201302823       660.5783205958915
0.05102891092631677       660.8053084041464
0.05125868051417213       661.0249722946036
0.051488900464733596      661.2373122672635
