% Model:              brazing.mph
% Version:            COMSOL 5.3.0.223
% Date:               Oct 20 2018, 02:52
% Dimension:          1
% Nodes:              225
% Expressions:        1
% Description:        Line graph
% x                       Height
0                         646.3132613782593
2.3022181212578358E-4     646.1786126251386
4.5999325066962656E-4     646.0150950816943
6.894940081029028E-4      645.8227087479261
9.189044129547812E-4      645.6014536238342
0.001148405006736289      645.3513297094189
0.0013781761183620641     645.0723370046796
0.001608397441069865      644.7644755096169
0.001839314118928521      644.0652651352838
0.0020697760201574002     643.3684453331105
0.002299964597801726      642.6740161030971
0.0025300619515304015     641.9819774452436
0.0027602503975112853     641.2923293595504
0.0029907120357255193     640.6050718460166
0.003221628319839081      639.920204904643
0.0034518885683530987     639.0213935296937
0.0036816980188178403     638.114696960646
0.003911236592567028      637.2001151974997
0.004140684848157368      636.2776482402551
0.004370223557282477      635.3472960889123
0.004600033278179856      634.4090587434707
0.004830293931548535      633.4629362039309
0.005060048526376791      632.3246032642519
0.005289355629682316      631.1993807582807
0.005518393850920054      630.087268686017
0.005747342428834         628.9882670474609
0.00597638081262499       627.902375842613
0.006205688240655705      626.8295950714722
0.006435443321622868      625.7699247340394
0.006665339619110656      624.6245332707475
0.006894787442849326      623.5004251341343
0.007123965728649401      622.3976003241993
0.007353054043912613      621.3160588409428
0.007582232167524012      620.2558006843651
0.007811679667266285      619.2168258544655
0.008041575479707366      618.1991343512444
0.008271887219609135      617.1700148073902
0.008501747728772392      616.1773750140011
0.008731337046705121      615.2212149710768
0.008960835851156599      614.3015346786175
0.009190425033567954      613.4183341366236
0.009420285272008154      612.5716133450941
0.009650596606620833      611.7613723040298
0.009881512912836019      610.9757430148594
0.010111974573021956      610.240213585353
0.010342163040896366      609.5547840155108
0.010572260416492441      608.9194543053326
0.010802449016030204      608.3342244548188
0.011032910939230619      607.7990944639687
0.011263827639190652      607.3140643327829
0.011494048967061755      606.8514965209513
0.011723820083820682      606.4643353241127
0.011953320682717213      606.1525807422673
0.012182731092678062      605.916232775415
0.012412231855226382      605.7552914235561
0.012642003298903411      605.6697566866901
0.012872225116192546      605.6596285648174
0.013102446994778118      605.5111690777567
0.013332218499393473      605.4578186794123
0.01356171932266464       605.499577369784
0.013791129793276359      605.6364451488721
0.01402063045289555       605.8684220166767
0.014250401630592404      606.1955079731974
0.014480623019759359      606.6177030184346
0.014711539835704642      606.8810084917728
0.014942001874208778      607.2257291077284
0.015172190588640395      607.6518648663011
0.01540228807899374       608.1594157674913
0.015632476661762654      608.7483818112989
0.015862938437253588      609.4187629977235
0.01609385485945594       610.1705593267657
0.016324115336228646      610.8424279513519
0.016553925013622208      611.5545635013663
0.016783463813500554      612.306965976809
0.017012912294953733      613.0996353776799
0.01724245123020976       613.9325717039793
0.01747226117803945       614.8057749557066
0.017702522059672054      615.7192451328625
0.017932276794613372      616.6310633988084
0.018161584037218948      617.5700418557108
0.018390622397267263      618.5361805035694
0.018619571113827754      619.5294793423845
0.018848609636427344      620.5499383721564
0.019077917203754128      621.5975575928843
0.019307672424828403      622.6723370045688
0.019537568573699274      623.6478720315043
0.01976701624968263       624.6401706100269
0.019996194388245302      625.6492327401363
0.020225282556443316      626.6750584218328
0.020454460532815345      627.7176476551164
0.02068390788479834       628.7770004399865
0.020913803548616574      629.8531167764439
0.02114411498977932       630.7123330130842
0.021373975201947604      631.5856688886238
0.02160356422393484       632.4731244030623
0.02183306273279162       633.3746995564002
0.02206265161925901       634.2903943486373
0.02229251156070728       635.2202087797733
0.02252282259658549       636.1641428498086
0.022753738766914562      636.7747704945303
0.022984200292012823      637.3879490858945
0.023214388625279938      638.0036786239011
0.023444485866429166      638.62195910855
0.023674674331359946      639.2427905398416
0.023905136119473275      639.8661729177752
0.024136052683548088      640.4921062423514
0.024366274021741702      640.7112259754335
0.024596045148762867      640.9321460183626
0.024825545757885373      641.154866371138
0.02505495617806012       641.3793870337604
0.02528445695083446       641.6057080062296
0.025514228404773787      641.8338292885452
0.025744450232385536      642.0637508807076
0.025974672267095825      641.9336861956779
0.026204443926923768      641.7817519296905
0.02643394490485871       641.6079480827455
0.02666335552995085       641.412274654843
0.026892856344233315      641.1947316459831
0.02712262767714175       640.9553190561654
0.02735284922243193       640.6940368853903
0.027583766528201624      640.0371308918739
0.027814229053652367      639.3714580723748
0.028044418253299775      638.6970184268931
0.02827451622829193       638.013811955429
0.028504705296278778      637.3218386579827
0.028735167558720572      636.6210985345535
0.028966084470753738      635.911591585142
0.029196345605491433      635.0406830745005
0.02942615593701711       634.139835933259
0.02965569538872289       633.2090501614175
0.029885144521236064      632.2483257589759
0.030114684108324883      631.2576627259347
0.030344494710297387      630.237061062293
0.030574756249911007      629.1865207680517
0.030804511377321087      628.0400411759354
0.031033819010118435      626.8860629298683
0.031262857758987544      625.7245860298503
0.03149180686390927       624.5556104758815
0.031720845775323685      623.3791362679622
0.031950153732830305      622.1951634060915
0.032179909346355486      621.0036918902703
0.0324098051544111        619.8222862126225
0.032639252491552244      618.649924464849
0.03286843029245836       617.4866066469498
0.0330975181233935        616.332332758925
0.03332669576210278       615.1871028007746
0.03355614277523119       614.0509167724982
0.033786038098215655      612.9237746740963
0.034016348759356954      611.8453095856407
0.03424620819605658       610.8025925245518
0.034475796445315066      609.7956234908293
0.03470529418235937       608.8244024844735
0.03493488229610333       607.8889295054844
0.035164741462093585      606.9892045538616
0.03539505171796626       606.1252276296055
0.035625967353597694      605.3233385571122
0.03585642834714083       604.5785887518134
0.036086616150743635      603.8909782137093
0.03631671286286018       603.2605069428001
0.03654690079812825       602.6871749390858
0.036777362054689705      602.1709822025659
0.03700827808407173       601.711928733241
0.03723849938140827       601.3060879477448
0.03746827046781093       600.982001552994
0.03769777103645843       600.7396695489887
0.03792718141620601       600.5790919357288
0.0381566821485052        600.5002687132147
0.03838645356182577       600.5031998814459
0.03861667534858004       600.5878854404227
0.038846895274787324      600.5870352759512
0.039076664838430766      600.6859142685352
0.03930616372759302       600.8845224181748
0.03953557226638858       601.18285972487
0.039765070991905134      601.5809261886212
0.039994840228642616      602.0787218094276
0.040225059665450036      602.6762465872899
0.04045597761776665       603.172754220929
0.04068644078597457       603.7512860392899
0.04091663062609736       604.4118420423725
0.041146729240799984      605.154422230177
0.04137691894925231       605.9790266027037
0.04160738185443156       606.8856551599519
0.04183829941298208       607.874307901922
0.04206856149768976       608.8166731639554
0.04229837277362926       609.7963787122591
0.04252791316640542       610.8134245468332
0.04275736323887129       611.8678106676776
0.04298690376702529       612.9595370747926
0.04321671531340127       614.0886037681776
0.04344697780296935       615.2550107478331
0.043676731016186174      616.4747746421922
0.04390603674591497       617.7041724443266
0.04413507359840861       618.9432041542362
0.04436402080919017       620.1918697719211
0.044593057824233256      621.4501692973815
0.04482236387867965       622.7181027306169
0.045052117578024006      623.9956700716278
0.045282012653644836      625.2748265747701
0.045511459262636354      626.5389770276138
0.04574063633797325       627.7881214301586
0.04596972344420469       629.022259782405
0.046198900357357554      630.2413920843528
0.046428346642361965      631.4455183360018
0.04665824123294997       632.6346385373522
0.04688855484177433       633.7330408646944
0.04711841720894409       634.8098282702032
0.04734800837831597       635.8650007538786
0.04757750903201372       636.8985583157203
0.047807100065861544      637.9105009557288
0.04803696216230292       638.9008286739036
0.04826727536583021       639.8695414702449
0.048498193048686675      640.6244253582213
0.048728656077441146      641.3548049739637
0.04895884590902903       642.0606803174721
0.04918894464672031       642.7420513887464
0.04941913460997818       643.3989181877871
0.04964959790176041       644.0312807145933
0.04988051597838159       644.6391389691659
0.05011073543954296       644.9120804448316
0.0503405047004922        645.1737615433276
0.05057000345013497       645.4241822646536
0.05079941201302823       645.6633426088098
0.05102891092631677       645.8912425757964
0.05125868051417213       646.1078821656126
0.051488900464733596      646.3132613782593
