% Model:              brazing.mph
% Version:            COMSOL 5.3.0.223
% Date:               Oct 20 2018, 03:22
% Dimension:          1
% Nodes:              193
% Expressions:        1
% Description:        Line graph
% x                       Height
0                         630.9269205520224
1.6028433640637486E-4     631.003930187927
3.201839556876346E-4      631.0741913729561
4.7982673004648776E-4     631.1377041071095
6.393411493738095E-4      631.1944683903871
7.988560137323205E-4      631.2444842227891
9.58500122107595E-4       631.2877516043156
0.0011184019611720658     631.3242705349663
0.0012786893978073315     631.3540410147415
0.0014692881782178572     631.3762883170822
0.0016592398034323465     631.3808920331338
0.0018487589083489172     631.3678521628964
0.00203806159906999       631.3371687063699
0.0022273647228667317     631.2888416635542
0.0024168851255237504     631.2228710344494
0.002606838908709185      631.1392568190555
0.0027974407000143733     631.0379990173725
0.003000214284638094      630.9101100815035
0.0032022105766743216     630.765423491842
0.003403687017647933      630.6039392483877
0.0036049030444305387     630.4256573511409
0.0038061191011872996     630.2305778001013
0.004007595631967136      630.0187005952691
0.00420959207329518       629.7900257366443
0.00441236586612622       629.5445532242268
0.004615139632985625      629.2620360530319
0.004817136048636202      628.9760758824361
0.005018612553936322      628.6866727124392
0.005219828585313435      628.3938265430413
0.005421044586718146      628.0975373742424
0.0056225210022172924     627.7978052060425
0.005824517268584787      627.4946300384416
0.006027290827249049      627.1880118714397
0.006217890949519272      626.868256498548
0.006407844130704021      626.5682315012003
0.0065973647866391935     626.2879368793963
0.00678666880286996       626.0273726331363
0.006975972806121895      625.7865387624202
0.007165493423165078      625.565435267248
0.007355446539677438      625.3640621476195
0.007546046571713631      625.182419403535
0.00770633524869351       625.047497340288
0.007866237248851195      624.9316911358417
0.008025880956992212      624.8350007901961
0.008185395381580456      624.7574263033513
0.008344909844757132      624.6989676753072
0.008504553668569658      624.6596249060639
0.008664455861201733      624.6393979956213
0.008824744806995652      624.6382869439794
0.008985029143401957      624.6591871538535
0.009144928762683142      624.7033526582642
0.009304571537041926      624.7707834572111
0.009464085956369179      624.8614795506944
0.00962360082072762       624.9754409387141
0.009783244929102828      625.11266762127
0.009943146768167231      625.2731595983624
0.010103434204802428      625.4569168699912
0.010294032985212885      625.6702378399582
0.010483984610427306      625.904847484539
0.01067350371534381       626.1607458037339
0.010862806406064813      626.4379327975428
0.011052109529861487      626.7364084659656
0.011241629932518437      627.0561728090024
0.011431583715703804      627.3972258266532
0.011622185507008923      627.759567518918
0.011824959091632737      628.1152193807557
0.012026955383669057      628.4630935257379
0.012228431824642762      628.8031899538648
0.01242964785142546       629.1355086651364
0.012630863908182311      629.4600496595526
0.012832340438962243      629.7768129371134
0.01303433688029038       630.0857984978188
0.013237110673121513      630.3870063416689
0.013439884439981065      630.6539319984255
0.013641880855631786      630.9000386515828
0.013843357360932049      631.1253263011405
0.014044573392309304      631.3297949470989
0.014245789393714157      631.5134445894578
0.014447265809213447      631.6762752282172
0.014649262075581083      631.8182868633771
0.01485203563424549       631.9394794949376
0.015042635756515686      632.0417433076377
0.015232588937700405      632.1263927842509
0.015422109593635547      632.1934279247776
0.015611413609866287      632.2428487292175
0.015800717613118194      632.2746551975707
0.01599023823016135       632.288847329837
0.01618019134667368       632.2854251260169
0.016370791378709844      632.2643885861099
0.016531080055689654      632.2178961391951
0.01669098205584727       632.168773049695
0.016850625763988217      632.1170193176097
0.017010140188576394      632.062634942939
0.017169654651752998      632.005619925683
0.017329298475565455      631.945974265842
0.017489200668197463      631.8836979634154
0.01764948961399131       631.8187910184038
0.01780977395039525       631.7173976361299
0.017969673569674088      631.6038005938331
0.018129316344030533      631.477999891513
0.01828883076335545       631.3399955291701
0.01844834562771156       631.1897875068041
0.01860798973608443       631.027375824415
0.018767891575146484      630.8527604820029
0.018928179011779317      630.6659414795676
0.019118777792188433      630.3788088834481
0.019308729417401523      630.0678372754811
0.019498248522316707      629.7330266556664
0.019687551213036395      629.3743770240043
0.019876854336831753      628.9918883804945
0.02006637473948738       628.5855607251374
0.020256328522671414      628.1553940579327
0.020446930313975188      627.7013883788804
0.02064970389860279       627.1488490431516
0.02085170019064286       626.5826099336686
0.02105317663162028       626.0026710504313
0.02125439265840668       625.40903239344
0.021455608715167235      624.8016939626946
0.02165708524595088       624.1806557581951
0.021859081687282764      623.5459177799415
0.02206185548011769       622.8974800279339
0.022264629246980954      622.2460899638409
0.022466625662635346      621.6077550070122
0.022668102167939252      620.9824751574479
0.022869318199320136      620.370250415148
0.023070534200728618      619.7710807801124
0.023272010616231548      619.1849662523413
0.023474006882602858      618.6119068318344
0.02367678044127098       618.0519025185919
0.02386738056353977       617.5106148853396
0.024057333744723106      617.0060436061345
0.02424685440065687       616.5381886809766
0.024436158416886237      616.107050109866
0.02462546242013677       615.7126278928026
0.024814983037178547      615.3549220297865
0.025004936153689494      615.0339325208176
0.025195536185724256      614.7496593658959
0.0253558248627017        614.5068635284397
0.025515726862856965      614.295246411201
0.025675370570995573      614.1148080141804
0.02583488499558142       613.9655483373775
0.02599439945875569       613.8474673807926
0.02615404328256581       613.7605651444254
0.026313945475195465      613.7048416282762
0.026474234420986946      613.6802968323448
0.026634518757392422      613.6824039626127
0.02679441837667279       613.7121019002308
0.026954061151030752      613.7693906451983
0.02711357557035719       613.8542701975158
0.027273090434714816      613.966740557183
0.027432734543089202      614.1068017242
0.027592636382152785      614.2744536985668
0.02775292381878715       614.4696964802835
0.02794352259919713       614.715641681092
0.02813347422441108       614.997187118585
0.028322993329327112      615.3143327927621
0.028512296020047647      615.6670787036235
0.02870159914384385       616.055424851169
0.028891119546500334      616.4793712353988
0.02908107332968523       616.9389178563129
0.029271675120989875      617.4340647139111
0.02947444870561504       617.9762368864014
0.029676444997652693      618.5311199118166
0.02987792143862772       619.0987137901573
0.030079137465411736      619.6790185214228
0.030280353522169904      620.2720341056136
0.030481830052951155      620.8777605427293
0.030683826494280624      621.4961978327703
0.030886600287113104      622.1273459757364
0.03108937405397396       622.7426979023426
0.03129137046962597       623.3503814294885
0.03149284697492751       623.9503965571743
0.03169406300630604       624.5427432853999
0.03189527900771217       625.1274216141652
0.03209675542321274       625.7044315434703
0.03229875168958166       626.2737730733152
0.03250152524824737       626.8354462036998
0.03269212537051706       627.2929489570085
0.03288207855170127       627.7240029998862
0.033071599207635916      628.1286083323325
0.033260903223866156      628.5067649543477
0.033450207227117564      628.8584728659316
0.033639727844160215      629.1837320670842
0.03382968096067204       629.4825425578057
0.034020280992707694      629.7549043380959
0.034180569669686675      629.9453644884034
0.03434047166984347       630.1232651748347
0.0345001153779836        630.2886063973898
0.03465962980257096       630.4413881560688
0.03481914426574675       630.5816104508715
0.034978788089558385      630.7092732817979
0.03513869028218957       630.8243766488482
0.035298979227982585      630.9269205520224
