% Model:              brazing.mph
% Version:            COMSOL 5.3.0.223
% Date:               Oct 20 2018, 03:01
% Dimension:          1
% Nodes:              225
% Expressions:        1
% Description:        Line graph
% x                       Height
0                         667.1861430516832
2.3022181212578358E-4     667.0451738399934
4.5999325066962656E-4     666.875245627612
6.894940081029028E-4      666.6763584145388
9.189044129547812E-4      666.4485122007743
0.001148405006736289      666.1917069863183
0.0013781761183620641     665.9059427711704
0.001608397441069865      665.5912195553312
0.001839314118928521      664.8687592240121
0.0020697760201574002     664.1488050873303
0.002299964597801726      663.4313571452858
0.0025300619515304015     662.7164153978784
0.0027602503975112853     662.0039798451088
0.0029907120357255193     661.2940504869762
0.003221628319839081      660.5866273234809
0.0034518885683530987     659.6578001152608
0.0036816980188178403     658.7189237810007
0.003911236592567028      657.7699983207008
0.004140684848157368      656.8110237343607
0.004370223557282477      655.8420000219812
0.004600033278179856      654.8629271835613
0.004830293931548535      653.8738052191017
0.005060048526376791      652.6966183435101
0.005289355629682316      651.5316788457864
0.005518393850920054      650.3789867259305
0.005747342428834         649.2385419839427
0.00597638081262499       648.1103446198232
0.006205688240655705      646.9943946335713
0.006435443321622868      645.8906920251876
0.006665339619110656      644.7057583493931
0.006894787442849326      643.5419862444095
0.007123965728649401      642.3993757102362
0.007353054043912613      641.2779267468737
0.007582232167524012      640.1776393543221
0.007811679667266285      639.0985135325808
0.008041575479707366      638.0405492816503
0.008271887219609135      636.9767016610815
0.008501747728772392      635.9504672222372
0.008731337046705121      634.961845965117
0.008960835851156599      634.0108378897213
0.009190425033567954      633.0974429960502
0.009420285272008154      632.2216612841031
0.009650596606620833      631.3834927538805
0.009881512912836019      630.5749630161771
0.010111974573021956      629.8186545996097
0.010342163040896366      629.1145675041784
0.010572260416492441      628.4627017298831
0.010802449016030204      627.863057276724
0.011032910939230619      627.3156341447007
0.011263827639190652      626.8204323338136
0.011494048967061755      626.3505798439156
0.011723820083820682      625.9602618285157
0.011953320682717213      625.6494782876138
0.012182731092678062      625.4182292212097
0.012412231855226382      625.2665146293039
0.012642003298903411      625.1943345118959
0.012872225116192546      625.201688868986
0.013102446994778118      625.0562143304903
0.013332218499393473      625.0121139531249
0.01356171932266464       625.0693877368898
0.013791129793276359      625.228035681785
0.01402063045289555       625.4880577878108
0.014250401630592404      625.8494540549666
0.014480623019759359      626.3122244832529
0.014711539835704642      626.6001485690124
0.014942001874208778      626.9745405809401
0.015172190588640395      627.4354005190359
0.01540228807899374       627.9827283832997
0.015632476661762654      628.6165241737318
0.015862938437253588      629.3367878903318
0.01609385485945594       630.1435195331001
0.016324115336228646      630.8632000215742
0.016553925013622208      631.6243323743189
0.016783463813500554      632.4269165913341
0.017012912294953733      633.27095267262
0.01724245123020976       634.1564406181768
0.01747226117803945       635.083380428004
0.017702522059672054      636.051772102102
0.017932276794613372      637.0234590036412
0.018161584037218948      638.0221154217917
0.018390622397267263      639.047741356553
0.018619571113827754      640.1003368079255
0.018848609636427344      641.1799017759095
0.019077917203754128      642.2864362605039
0.019307672424828403      643.4199402617098
0.019537568573699274      644.4581027360771
0.01976701624968263       645.511400848393
0.019996194388245302      646.5798345986576
0.020225282556443316      647.663403986871
0.020454460532815345      648.7621090130335
0.02068390788479834       649.8759496771447
0.020913803548616574      651.0049259792047
0.02114411498977932       651.91869670749
0.021373975201947604      652.8441768426694
0.02160356422393484       653.7813663847429
0.02183306273279162       654.7302653337106
0.02206265161925901       655.6908736895728
0.02229251156070728       656.6631914523288
0.02252282259658549       657.647218621979
0.022753738766914562      658.2969964590599
0.022984200292012823      658.9462562732115
0.023214388625279938      659.5949980644339
0.023444485866429166      660.2432218327273
0.023674674331359946      660.8909275780917
0.023905136119473275      661.5381153005268
0.024136052683548088      662.184785000033
0.024366274021741702      662.4210066080116
0.024596045148762867      662.656706443431
0.024825545757885373      662.8918845062908
0.02505495617806012       663.1265407965914
0.02528445695083446       663.3606753143332
0.025514228404773787      663.5942880595152
0.025744450232385536      663.8273790321382
0.025974672267095825      663.683947860022
0.026204443926923768      663.5175383915305
0.02643394490485871       663.328150626663
0.02666335552995085       663.1157845654199
0.026892856344233315      662.8804402078015
0.02712262767714175       662.6221175538069
0.02735284922243193       662.3408166034369
0.027583766528201624      661.6469795232315
0.027814229053652367      660.9434360435383
0.028044418253299775      660.2301861643575
0.02827451622829193       659.5072298856888
0.028504705296278778      658.7745672075328
0.028735167558720572      658.0321981298886
0.028966084470753738      657.2801226527567
0.029196345605491433      656.3575043008879
0.02942615593701711       655.402160765424
0.02965569538872289       654.4140920463649
0.029885144521236064      653.3932981437111
0.030114684108324883      652.3397790574625
0.030344494710297387      651.2535347876186
0.030574756249911007      650.1345653341799
0.030804511377321087      648.9220528979646
0.031033819010118435      647.7003831068624
0.031262857758987544      646.4695559608738
0.03149180686390927       645.2295714599985
0.031720845775323685      643.9804296042369
0.031950153732830305      642.7221303935883
0.032179909346355486      641.4546738280533
0.0324098051544111        640.2014360705741
0.032639252491552244      638.9568109384966
0.03286843029245836       637.7207984318203
0.0330975181233935        636.4933985505457
0.03332669576210278       635.2746112946729
0.03355614277523119       634.0644366642013
0.033786038098215655      632.8628746591313
0.034016348759356954      631.7155300231012
0.03424620819605658       630.6051525881217
0.034475796445315066      629.531742354192
0.03470529418235937       628.4952993213129
0.03493488229610333       627.4958234894843
0.035164741462093585      626.5333148587057
0.03539505171796626       625.6077734289775
0.035625967353597694      624.7495083047515
0.03585642834714083       623.9509750639289
0.036086616150743635      623.2121737065095
0.03631671286286018       622.5331042324934
0.03654690079812825       621.9137666418808
0.036777362054689705      621.3541609346711
0.03700827808407173       620.854287110865
0.03723849938140827       620.4110315746974
0.03746827046781093       620.0543936100195
0.03769777103645843       619.7843732168313
0.03792718141620601       619.6009703951331
0.0381566821485052        619.504185144925
0.03838645356182577       619.4940174662063
0.03861667534858004       619.5704673589776
0.038846895274787324      619.5483077135804
0.039076664838430766      619.6328892450794
0.03930616372759302       619.8242119534744
0.03953557226638858       620.1222758387659
0.039765070991905134      620.5270809009536
0.039994840228642616      621.0386271400373
0.040225059665450036      621.6569145560175
0.04045597761776665       622.1594965125139
0.04068644078597457       622.7500057725144
0.04091663062609736       623.4284423360192
0.041146729240799984      624.1948062030282
0.04137691894925231       625.0490973735415
0.04160738185443156       625.9913158475588
0.04183829941298208       627.0214616250804
0.04206856149768976       627.999642240702
0.04229837277362926       629.0170046695442
0.04252791316640542       630.073548911607
0.04275736323887129       631.1692749668904
0.04298690376702529       632.3041828353946
0.04321671531340127       633.4782725171192
0.04344697780296935       634.6915440120646
0.043676731016186174      635.9641907491797
0.04390603674591497       637.2467140922608
0.04413507359840861       638.5391140413077
0.04436402080919017       639.8413905963207
0.044593057824233256      641.1535437573
0.04482236387867965       642.4755735242446
0.045052117578024006      643.8074798971556
0.045282012653644836      645.1462095718341
0.045511459262636354      646.468597407313
0.04574063633797325       647.7746434035929
0.04596972344420469       649.0643475606732
0.046198900357357554      650.3377098785545
0.046428346642361965      651.5947303572362
0.04665824123294997       652.8354089967188
0.04688855484177433       653.9882321105727
0.04711841720894409       655.1171470067477
0.04734800837831597       656.2221536852442
0.04757750903201372       657.3032521460616
0.047807100065861544      658.3604423892008
0.04803696216230292       659.3937244146609
0.04826727536583021       660.4030982224424
0.048498193048686675      661.1988825530099
0.048728656077441146      661.9673166162402
0.04895884590902903       662.708400412133
0.04918894464672031       663.4221339406884
0.04941913460997818       664.1085172019068
0.04964959790176041       664.7675501957873
0.04988051597838159       665.3992329223308
0.05011073543954296       665.6936696163608
0.0503405047004922        665.9750517042548
0.05057000345013497       666.2433791860128
0.05079941201302823       666.4986520616344
0.05102891092631677       666.7408703311203
0.05125868051417213       666.9700339944696
0.051488900464733596      667.1861430516832
