% Model:              brazing.mph
% Version:            COMSOL 5.3.0.223
% Date:               Oct 20 2018, 00:42
% Dimension:          1
% Nodes:              193
% Expressions:        1
% Description:        Line graph
% x                       Height
0                         635.7842734156765
1.6028433640637486E-4     635.8710153229075
3.201839556876346E-4      635.950256890107
4.7982673004648776E-4     636.0219981172751
6.393411493738095E-4      636.0862390044117
7.988560137323205E-4      636.1429795515169
9.58500122107595E-4       636.1922197585907
0.0011184019611720658     636.2339596256329
0.0012786893978073315     636.2681991526438
0.0014692881782178572     636.2961294457205
0.0016592398034323465     636.3063076223681
0.0018487589083489172     636.2987336825867
0.00203806159906999       636.2734076263764
0.0022273647228667317     636.2303294537371
0.0024168851255237504     636.1694991646688
0.002606838908709185      636.0909167591715
0.0027974407000143733     635.9945822372453
0.003000214284638094      635.8649730028794
0.0032022105766743216     635.7186389367324
0.003403687017647933      635.5555800388042
0.0036049030444305387     635.3757963090947
0.0038061191011872996     635.179287747604
0.004007595631967136      634.966054354332
0.00420959207329518       634.7360961292787
0.00441236586612622       634.4894130724443
0.004615139632985625      634.207247121782
0.004817136048636202      633.9213899102612
0.005018612553936322      633.631841437882
0.005219828585313435      633.3386017046445
0.005421044586718146      633.0416707105486
0.0056225210022172924     632.7410484555944
0.005824517268584787      632.4367349397819
0.006027290827249049      632.128730163111
0.006217890949519272      631.8058315081787
0.006407844130704021      631.5029540188136
0.0065973647866391935     631.2200976950162
0.00678666880286996       630.957262536786
0.006975972806121895      630.7144485441231
0.007165493423165078      630.4916557170277
0.007355446539677438      630.2888840554996
0.007546046571713631      630.1061335595389
0.00770633524869351       629.9702990763574
0.007866237248851195      629.853651080766
0.008025880956992212      629.7561895727641
0.008185395381580456      629.6779145523521
0.008344909844757132      629.6188260195299
0.008504553668569658      629.5789239742975
0.008664455861201733      629.5582084166549
0.008824744806995652      629.5566793466021
0.008985029143401957      629.5765694514495
0.009144928762683142      629.6202257865503
0.009304571537041926      629.6876483519044
0.009464085956369179      629.7788371475118
0.00962360082072762       629.8937921733725
0.009783244929102828      630.0325134294866
0.009943146768167231      630.1950009158538
0.010103434204802428      630.3812546324745
0.010294032985212885      630.5960452010394
0.010483984610427306      630.8323438480348
0.01067350371534381       631.090150573461
0.010862806406064813      631.3694653773175
0.011052109529861487      631.6702882596047
0.011241629932518437      631.9926192203225
0.011431583715703804      632.3364582594709
0.011622185507008923      632.7018053770498
0.011824959091632737      633.0601195122035
0.012026955383669057      633.4102446240173
0.012228431824642762      633.752180712491
0.01242964785142546       634.0859277776248
0.012630863908182311      634.4114858194185
0.012832340438962243      634.7288548378724
0.01303433688029038       635.0380348329862
0.013237110673121513      635.3390258047601
0.013439884439981065      635.6083586617373
0.013641880855631786      635.8563794113983
0.013843357360932049      636.0830880537427
0.014044573392309304      636.2884845887709
0.014245789393714157      636.4725690164827
0.014447265809213447      636.6353413368779
0.014649262075581083      636.776801549957
0.01485203563424549       636.8969496557196
0.015042635756515686      636.9949355083608
0.015232588937700405      637.0750713577513
0.015422109593635547      637.1373572038913
0.015611413609866287      637.1817930467809
0.015800717613118194      637.2083788864198
0.01599023823016135       637.2171147228083
0.01618019134667368       637.2080005559463
0.016370791378709844      637.1810363858337
0.016531080055689654      637.1294056088336
0.01669098205584727       637.0743157855319
0.016850625763988217      637.0157669159286
0.017010140188576394      636.9537590000238
0.017169654651752998      636.8882920378173
0.017329298475565455      636.8193660293093
0.017489200668197463      636.7469809744997
0.01764948961399131       636.6711368733885
0.01780977395039525       636.5611325306286
0.017969673569674088      636.4384158056471
0.018129316344030533      636.302986698444
0.01828883076335545       636.1548452090195
0.01844834562771156       635.9939913373736
0.01860798973608443       635.8204250835062
0.018767891575146484      635.6341464474173
0.018928179011779317      635.4351554291069
0.019118777792188433      635.1339621399794
0.019308729417401523      634.8086511196256
0.019498248522316707      634.4592223680453
0.019687551213036395      634.0856758852387
0.019876854336831753      633.6880116712058
0.02006637473948738       633.2662297259465
0.020256328522671414      632.8203300494607
0.020446930313975188      632.3503126417487
0.02064970389860279       631.7800105199714
0.02085170019064286       631.1956631049264
0.02105317663162028       630.5972703966139
0.02125439265840668       629.9848323950339
0.021455608715167235      629.3583491001863
0.02165708524595088       628.7178205120712
0.021859081687282764      628.0632466306884
0.02206185548011769       627.394627456038
0.022264629246980954      626.7252479752657
0.022466625662635346      626.0692748840959
0.022668102167939252      625.4267081825284
0.022869318199320136      624.7975478705634
0.023070534200728618      624.181793948201
0.023272010616231548      623.5794464154408
0.023474006882602858      622.9905052722833
0.02367678044127098       622.4149705187281
0.02386738056353977       621.858555881669
0.024057333744723106      621.3399795818691
0.02424685440065687       620.8592416193288
0.024436158416886237      620.416341994048
0.02462546242013677       620.0112807060266
0.024814983037178547      619.6440577552647
0.025004936153689494      619.3146731417622
0.025195536185724256      619.0231268655192
0.0253558248627017        618.7732061396354
0.025515726862856965      618.5555091626994
0.025675370570995573      618.3700359347109
0.02583488499558142       618.2167864556702
0.02599439945875569       618.0957607255771
0.02615404328256581       618.0069587444316
0.026313945475195465      617.9503805122337
0.026474234420986946      617.9260260289834
0.026634518757392422      617.9287209527466
0.02679441837667279       617.9598274409102
0.026954061151030752      618.0193454934744
0.02711357557035719       618.107275110439
0.027273090434714816      618.223616291804
0.027432734543089202      618.3683690375694
0.027592636382152785      618.5415333477354
0.02775292381878715       618.7431092223018
0.02794352259919713       618.9958040907779
0.02813347422441108       619.2850922115161
0.028322993329327112      619.6109735845165
0.028512296020047647      619.9734482097788
0.02870159914384385       620.3725160873032
0.028891119546500334      620.8081772170896
0.02908107332968523       621.2804315991382
0.029271675120989875      621.7892792334488
0.02947444870561504       622.3466759544594
0.029676444997652693      622.9170956533462
0.02987792143862772       623.5005383301094
0.030079137465411736      624.0970039847488
0.030280353522169904      624.7064926172645
0.030481830052951155      625.3290042276565
0.030683826494280624      625.9645388159247
0.030886600287113104      626.6130963820692
0.03108937405397396       627.2473090794638
0.03129137046962597       627.8746102270209
0.03149284697492751       628.4949998247405
0.03169406300630604       629.1084778726226
0.03189527900771217       629.7150443706673
0.03209675542321274       630.3146993188745
0.03229875168958166       630.9074427172444
0.03250152524824737       631.4932745657768
0.03269212537051706       631.9641867553305
0.03288207855170127       632.408919627706
0.033071599207635916      632.8274731829038
0.033260903223866156      633.2198474209233
0.033450207227117564      633.5860423417649
0.033639727844160215      633.9260579454285
0.03382968096067204       634.239894231914
0.034020280992707694      634.5275512012215
0.034180569669686675      634.7308162535232
0.03434047166984347       634.9208885128265
0.0345001153779836        635.0977679791312
0.03465962980257096       635.2614546524374
0.03481914426574675       635.411948532745
0.034978788089558385      635.5492496200541
0.03513869028218957       635.6733579143645
0.035298979227982585      635.7842734156765
