% Model:              brazing.mph
% Version:            COMSOL 5.3.0.223
% Date:               Oct 20 2018, 02:44
% Dimension:          1
% Nodes:              225
% Expressions:        1
% Description:        Line graph
% x                       Height
0                         633.2409068366642
2.3022181212578358E-4     633.109765027291
4.5999325066962656E-4     632.952554952674
6.894940081029028E-4      632.7692766128127
9.189044129547812E-4      632.5599300077076
0.001148405006736289      632.3245151373585
0.0013781761183620641     632.0630320017654
0.001608397441069865      631.7754806009282
0.001839314118928521      631.0944791895135
0.0020697760201574002     630.418234371586
0.002299964597801726      629.7467461471455
0.0025300619515304015     629.0800145161921
0.0027602503975112853     628.4180394787262
0.0029907120357255193     627.7608210347472
0.003221628319839081      627.1083591842555
0.0034518885683530987     626.2419144028842
0.0036816980188178403     625.3683434117116
0.003911236592567028      624.4876462107379
0.004140684848157368      623.599822799963
0.004370223557282477      622.7048731793874
0.004600033278179856      621.80279734901
0.004830293931548535      620.8935953088319
0.005060048526376791      619.7955798698399
0.005289355629682316      618.710979627594
0.005518393850920054      617.6397945820939
0.005747342428834         616.5820247333398
0.00597638081262499       615.5376700813322
0.006205688240655705      614.5067306260701
0.006435443321622868      613.4892063675542
0.006665339619110656      612.3877686814988
0.006894787442849326      611.3072890338844
0.007123965728649401      610.2477674247109
0.007353054043912613      609.2092038539785
0.007582232167524012      608.1915983216874
0.007811679667266285      607.1949508278368
0.008041575479707366      606.2192613724275
0.008271887219609135      605.233183768148
0.008501747728772392      604.2826038093023
0.008731337046705121      603.3675214958901
0.008960835851156599      602.4879368279117
0.009190425033567954      601.6438498053672
0.009420285272008154      600.8352604282558
0.009650596606620833      600.0621686965784
0.009881512912836019      599.3137041447609
0.010111974573021956      598.613817441952
0.010342163040896366      597.9625085881516
0.010572260416492441      597.3597775833599
0.010802449016030204      596.8056244275772
0.011032910939230619      596.3000491208027
0.011263827639190652      595.8430516630369
0.011494048967061755      595.4071733481755
0.011723820083820682      595.0452385444443
0.011953320682717213      594.757247251843
0.012182731092678062      594.5431994703719
0.012412231855226382      594.4030952000312
0.012642003298903411      594.3369344408204
0.012872225116192546      594.3447171927398
0.013102446994778118      594.2085142907339
0.013332218499393473      594.1664517501093
0.01356171932266464       594.2185295708658
0.013791129793276359      594.3647477530037
0.01402063045289555       594.6051062965233
0.014250401630592404      594.9396052014237
0.014480623019759359      595.3682444677056
0.014711539835704642      595.6310564122666
0.014942001874208778      595.974517798855
0.015172190588640395      596.3986286274709
0.01540228807899374       596.903388898114
0.015632476661762654      597.4887986107849
0.015862938437253588      598.154857765483
0.01609385485945594       598.9015663622085
0.016324115336228646      599.563903832326
0.016553925013622208      600.2653552700547
0.016783463813500554      601.0059206753943
0.017012912294953733      601.7856000483453
0.01724245123020976       602.6043933889076
0.01747226117803945       603.4623006970808
0.017702522059672054      604.3593219728652
0.017932276794613372      605.2546705726498
0.018161584037218948      606.1763750226099
0.018390622397267263      607.1244353227448
0.018619571113827754      608.098851473055
0.018848609636427344      609.0996234735404
0.019077917203754128      610.1267513242007
0.019307672424828403      611.1802350250363
0.019537568573699274      612.1356843775505
0.01976701624968263       613.1075247350225
0.019996194388245302      614.0957560974513
0.020225282556443316      615.1003784648376
0.020454460532815345      616.1213918371815
0.02068390788479834       617.1587962144821
0.020913803548616574      618.2125915967404
0.02114411498977932       619.0510872035277
0.021373975201947604      619.9037575440104
0.02160356422393484       620.7706026181886
0.02183306273279162       621.6516224260622
0.02206265161925901       622.5468169676315
0.02229251156070728       623.4561862428959
0.02252282259658549       624.3797302518559
0.022753738766914562      624.9715246775453
0.022984200292012823      625.5665099887232
0.023214388625279938      626.1646861853892
0.023444485866429166      626.7660532675436
0.023674674331359946      627.3706112351865
0.023905136119473275      627.9783600883176
0.024136052683548088      628.5892998269371
0.024366274021741702      628.7941830089599
0.024596045148762867      629.0022537203079
0.024825545757885373      629.213511960981
0.02505495617806012       629.4279577309793
0.02528445695083446       629.6455910303032
0.025514228404773787      629.8664118589519
0.025744450232385536      630.090420216926
0.025974672267095825      629.9516952835668
0.026204443926923768      629.7929649626407
0.02643394490485871       629.6142292541474
0.02666335552995085       629.4154881580871
0.026892856344233315      629.1967416744601
0.02712262767714175       628.9579898032657
0.02735284922243193       628.6992325445045
0.027583766528201624      628.044290674976
0.027814229053652367      627.3823588758052
0.028044418253299775      626.713437146992
0.02827451622829193       626.0375254885363
0.028504705296278778      625.3546239004386
0.028735167558720572      624.6647323826982
0.028966084470753738      623.9678509353156
0.029196345605491433      623.1097829316034
0.02942615593701711       622.2224248135682
0.02965569538872289       621.3057765812102
0.029885144521236064      620.3598382345295
0.030114684108324883      619.3846097735262
0.030344494710297387      618.3800911981997
0.030574756249911007      617.3462825085506
0.030804511377321087      616.2193991443054
0.031033819010118435      615.0850582003825
0.031262857758987544      613.9432596767817
0.03149180686390927       612.7940035735035
0.031720845775323685      611.6372898905479
0.031950153732830305      610.4731186279141
0.032179909346355486      609.3014897856029
0.0324098051544111        608.141281585811
0.032639252491552244      606.9895328722929
0.03286843029245836       605.8462436450487
0.0330975181233935        604.7114139040784
0.03332669576210278       603.5850436493824
0.03355614277523119       602.4671328809598
0.033786038098215655      601.3576815988114
0.034016348759356954      600.2975770729046
0.03424620819605658       599.2718765741625
0.034475796445315066      598.2805801025851
0.03470529418235937       597.3236876581724
0.03493488229610333       596.4011992409246
0.035164741462093585      595.5131148508411
0.03539505171796626       594.6594344879226
0.035625967353597694      593.8675240015123
0.03585642834714083       593.130880416892
0.036086616150743635      592.4495037340615
0.03631671286286018       591.8233939530212
0.03654690079812825       591.2525510737712
0.036777362054689705      590.7369750963107
0.03700827808407173       590.2766660206406
0.03723849938140827       589.867911567898
0.03746827046781093       589.5394281296881
0.03769777103645843       589.2912157060106
0.03792718141620601       589.1232742968658
0.0381566821485052        589.035603902254
0.03838645356182577       589.0282045221745
0.03861667534858004       589.1010761566278
0.038846895274787324      589.0804578187913
0.039076664838430766      589.1589426539529
0.03930616372759302       589.3365306621126
0.03953557226638858       589.6132218432707
0.039765070991905134      589.9890161974272
0.039994840228642616      590.4639137245815
0.040225059665450036      591.0379144247344
0.04045597761776665       591.5014615847059
0.04068644078597457       592.0468020769736
0.04091663062609736       592.6739359015371
0.041146729240799984      593.3828630583968
0.04137691894925231       594.1735835475528
0.04160738185443156       595.0460973690045
0.04183829941298208       596.0004045227525
0.04206856149768976       596.9032600055945
0.04229837277362926       597.8427023796709
0.04252791316640542       598.8187316449812
0.04275736323887129       599.8313478015259
0.04298690376702529       600.8805508493052
0.04321671531340127       601.9663407883185
0.04344697780296935       603.0887176185661
0.043676731016186174      604.2656763174408
0.04390603674591497       605.4521375236083
0.04413507359840861       606.6481012370683
0.04436402080919017       607.8535674578212
0.044593057824233256      609.068536185867
0.04482236387867965       610.2930074212053
0.045052117578024006      611.5269811638365
0.045282012653644836      612.7650504975561
0.045511459262636354      613.9888301090562
0.04574063633797325       615.1983199983368
0.04596972344420469       616.3935201653981
0.046198900357357554      617.5744306102401
0.046428346642361965      618.7410513328625
0.04665824123294997       619.8933823332657
0.04688855484177433       620.9580857924213
0.04711841720894409       622.0025110071008
0.04734800837831597       623.0266579773038
0.04757750903201372       624.0305267030304
0.047807100065861544      625.0141171842811
0.04803696216230292       625.977429421055
0.04826727536583021       626.9204634133529
0.048498193048686675      627.6526382008783
0.048728656077441146      628.3622829003941
0.04895884590902903       629.0493975119002
0.04918894464672031       629.7139820353964
0.04941913460997818       630.3560364708833
0.04964959790176041       630.9755608183601
0.04988051597838159       631.5725550778274
0.05011073543954296       631.8372467872724
0.0503405047004922        632.0931532487517
0.05057000345013497       632.3402744622654
0.05079941201302823       632.5786104278134
0.05102891092631677       632.8081611453962
0.05125868051417213       633.0289266150129
0.051488900464733596      633.2409068366642
