% Model:              brazing.mph
% Version:            COMSOL 5.3.0.223
% Date:               Oct 20 2018, 02:07
% Dimension:          1
% Nodes:              145
% Expressions:        1
% Description:        Line graph
% x                       Height
0                         631.7349297270159
1.8037553861809572E-4     632.0001216290699
3.5951128344368776E-4     632.2106263141699
5.377561773732229E-4      632.366443782316
7.154644111300318E-4      632.467574033508
8.929933875627798E-4      632.5140170677461
0.0010707015910786408     632.5057728850302
0.0012489464247083767     632.4428414853604
0.0014280820795340731     632.3252228687364
0.0016084574989771061     632.1529170351587
0.0017793134314883058     632.0872261287378
0.0019491114898538484     631.9962698871408
0.002118149876008701      631.8800483103676
0.0022867308232763497     631.7385613984183
0.002455159027530182      631.5718091512928
0.0026237400128558564     631.3797915689912
0.0027927784749207734     631.1625086515132
0.0029625766466419693     630.9199603988591
0.0031334327293582195     630.652146811029
0.0033042867504275058     630.4746413586182
0.0034740828875811486     630.291619797974
0.0036431193341009516     630.1030821290966
0.0038116983146850476     629.9090283519859
0.003980124516686077      629.7094584666418
0.004148703455848711      629.5043724730643
0.004317739819749776      629.2937703712533
0.004487535833529769      629.0776521612092
0.004658389691119368      628.8560178429317
0.0048387629974717405     628.7314293032223
0.005017896580971026      628.6115268975493
0.005196139373513023      628.4963106259129
0.0053738455543625        628.3857804883128
0.005551372514551955      628.2799364847492
0.005729078726427549      628.1787786152222
0.005907321580834967      628.0823068797316
0.006086455256670912      627.9905212782774
0.006266828685292636      627.9034218108598
0.0064472042239161545     628.0507543625437
0.0066263399687470585     628.2060284577075
0.00680458486268183       628.3692440963517
0.0069822930964438265     628.540401278476
0.007159822072881748      628.7195000040806
0.007337530276402798      628.9065402731653
0.007515775110037768      629.1015220857303
0.007694910764868775      629.3044454417753
0.007875286184317232      629.5153103413006
0.008046142116827224      629.7876708432635
0.008215940175191578      630.0513418161576
0.008384978561345261      630.3063232599831
0.008553559508611747      630.5526151747399
0.008721987712864422      630.7902175604281
0.008890568698188937      631.0191304170477
0.00905960716025268       631.2393537445984
0.009229405331972688      631.4508875430805
0.009400261414687729      631.653731812494
0.009571115435747398      631.9743506854797
0.009740911572891598      632.2647181651804
0.009909948019402086      632.5248342515964
0.010078526999976944      632.7546989447275
0.010246953201968763      632.9543122445735
0.010415532141122159      633.1236741511348
0.010584568505013912      633.2627846644111
0.010754364518784467      633.3716437844026
0.010925218376364454      633.4502515111093
0.011105591682722255      633.6116031617116
0.01128472526622686       633.7263015564704
0.011462968058774099      633.7943466953861
0.011640674239628768      633.8157385784584
0.011818201199823401      633.7904772056874
0.01199590741170419       633.718562577073
0.012174150266116847      633.5999946926153
0.012353283941958112      633.4347735523143
0.012533657370585264      633.2228991561698
0.01271403176453574       633.1853665908765
0.012893166387683227      633.0930905994178
0.013071410176518557      632.9460711817941
0.013249117315197753      632.7443083380051
0.013426645199902413      632.4878020680508
0.013604352308338922      632.1765523719314
0.01378259603687098       631.8105592496465
0.013961730570013379      631.3898227011966
0.014142104844781908      630.9143427265815
0.014312959944399205      630.5117602738075
0.014482757184992078      630.0847485286948
0.014651794764271453      629.6333074912441
0.014820374911240972      629.1574371614548
0.014988802317395246      628.6571375393271
0.01515738250242126       628.132408624861
0.015326420157607648      627.5832504180564
0.015496217511551624      627.0096629189134
0.015667072761367945      626.411646127432
0.01583792791479403       625.8934681852304
0.016007725163749622      625.3830008502455
0.01617676270725794       624.8802441224777
0.01634534277588875       624.3851980019269
0.016513770062946447      623.8978624885931
0.01668235009015449       623.4182375824763
0.016851387551041475      622.9463232835764
0.017021184676619543      622.4821195918933
0.017192039666560827      622.0256265074274
0.017372413817338207      621.6507931708214
0.017551548228302124      621.3019617006785
0.017729791836073705      620.9791320969987
0.017907498824762332      620.6823043597819
0.018085026590318725      620.4114784890285
0.018262733610032132      620.1666544847379
0.018440977279666457      619.9478323469104
0.018620111782963036      619.7550120755461
0.018800486056004474      619.5881936706448
0.018980860449944497      619.6778699033646
0.019159995073081745      619.7991089048156
0.019338238861906984      619.9519106749982
0.01951594600057618       620.1362752139125
0.019693473885270874      620.3522025215582
0.019871180993697383      620.5996925979355
0.020049424722219357      620.8787454430442
0.02022855925535152       621.1893610568844
0.0204089335301096        621.5315394394562
0.02057978862980686       621.9376825826263
0.020749585870478253      622.3467038161027
0.020918623449835097      622.758603139886
0.021087203596881453      623.1733805539758
0.021255631003112355      623.5910360583722
0.021424211188215206      624.0115696530751
0.021593248843479067      624.4349813380846
0.021763046197501558      624.8612711134008
0.02193390144739785       625.2904389790235
0.022104756600747556      625.8648591760918
0.02227455384962815       626.4131883800351
0.02244359139306247       626.9354265908536
0.022612171461619885      627.4315738085471
0.022780598748604386      627.9016300331157
0.022949178775739036      628.3455952645594
0.02311821623655202       628.7634695028781
0.023288013362055097      629.1552527480718
0.023458868351919994      629.5209450001407
0.02363924250270423       629.9566588905905
0.023818376913674867      630.3449438841741
0.023996620521453065      630.685799980892
0.02417432751014825       630.979227180744
0.02435185527571118       631.2252254837302
0.024529562295431146      631.4237948898506
0.02470780596507209       631.5749353991048
0.024886940468375387      631.6786470114934
0.025067314741423676      631.7349297270159
