% Model:              brazing.mph
% Version:            COMSOL 5.3.0.223
% Date:               Oct 20 2018, 02:11
% Dimension:          1
% Nodes:              145
% Expressions:        1
% Description:        Line graph
% x                       Height
0                         659.5588749214185
1.8037553861809572E-4     659.8226675536894
3.5951128344368776E-4     660.032256548061
5.377561773732229E-4      660.1876419045341
7.154644111300318E-4      660.2888236231082
8.929933875627798E-4      660.3358017037833
0.0010707015910786408     660.3285761465596
0.0012489464247083767     660.2671469514369
0.0014280820795340731     660.1515141184151
0.0016084574989771061     659.9816776474947
0.0017793134314883058     659.9166480390124
0.0019491114898538484     659.8265911512266
0.002118149876008701      659.7115069841376
0.0022867308232763497     659.5713955377452
0.002455159027530182      659.4062568120493
0.0026237400128558564     659.2160908070503
0.0027927784749207734     659.0008975227477
0.0029625766466419693     658.7606769591416
0.0031334327293582195     658.4954291162325
0.0033042867504275058     658.3191775250344
0.0034740828875811486     658.1375531551555
0.0036431193341009516     657.9505560065963
0.0038116983146850476     657.7581860793564
0.003980124516686077      657.5604433734359
0.004148703455848711      657.3573278888347
0.004317739819749776      657.148839625553
0.004487535833529769      656.9349785835906
0.004658389691119368      656.7157447629477
0.0048387629974717405     656.5920227165208
0.005017896580971026      656.4730679284457
0.005196139373513023      656.3588803987228
0.0053738455543625        656.249460127352
0.005551372514551955      656.1448071143329
0.005729078726427549      656.0449213596659
0.005907321580834967      655.9498028633507
0.006086455256670912      655.8594516253876
0.006266828685292636      655.7738676457765
0.0064472042239161545     655.9201145939347
0.0066263399687470585     656.074331895638
0.00680458486268183       656.2365195508867
0.0069822930964438265     656.4066775596805
0.007159822072881748      656.5848059220194
0.007337530276402798      656.7709046379035
0.007515775110037768      656.964973707333
0.007694910764868775      657.1670131303075
0.007875286184317232      657.3770229068273
0.008046142116827224      657.6473388332594
0.008215940175191578      657.9091085067257
0.008384978561345261      658.1623319272268
0.008553559508611747      658.4070090947624
0.008721987712864422      658.6431400093325
0.008890568698188937      658.8707246709371
0.00905960716025268       659.0897630795762
0.009229405331972688      659.3002552352497
0.009400261414687729      659.5022011379579
0.009571115435747398      659.8203478729506
0.009740911572891598      660.1085204277879
0.009909948019402086      660.3667188024699
0.010078526999976944      660.5949429969966
0.010246953201968763      660.7931930113677
0.010415532141122159      660.9614688455837
0.010584568505013912      661.0997704996439
0.010754364518784467      661.2080979735489
0.010925218376364454      661.2864512672986
0.011105591682722255      661.4458690654033
0.01128472526622686       661.5589762130212
0.011462968058774099      661.6257727101529
0.011640674239628768      661.6462585567982
0.011818201199823401      661.620433752957
0.01199590741170419       661.5482982986292
0.012174150266116847      661.4298521938151
0.012353283941958112      661.2650954385144
0.012533657370585264      661.0540280327275
0.01271403176453574       661.0147055141243
0.012893166387683227      660.9211567286475
0.013071410176518557      660.7733816762972
0.013249117315197753      660.5713803570733
0.013426645199902413      660.3151527709758
0.013604352308338922      660.0046989180049
0.01378259603687098       659.6400187981601
0.013961730570013379      659.2211124114422
0.014142104844781908      658.7479797578504
0.014312959944399205      658.3465204215507
0.014482757184992078      657.9209177961716
0.014651794764271453      657.4711718817133
0.014820374911240972      656.9972826781757
0.014988802317395246      656.4992501855587
0.01515738250242126       655.9770744038626
0.015326420157607648      655.430755333087
0.015496217511551624      654.8602929732322
0.015667072761367945      654.2656873242981
0.01583792791479403       653.7498578594357
0.016007725163749622      653.24181499566
0.01617676270725794       652.7415587329715
0.01634534277588875       652.2490890713699
0.016513770062946447      651.7644060108552
0.01668235009015449       651.2875095514277
0.016851387551041475      650.8183996930868
0.017021184676619543      650.357076435833
0.017192039666560827      649.9035397796663
0.017372413817338207      649.5301870174152
0.017551548228302124      649.1828013075395
0.017729791836073705      648.8613826500399
0.017907498824762332      648.565931044916
0.018085026590318725      648.2964464921679
0.018262733610032132      648.0529289917954
0.018440977279666457      647.8353785437987
0.018620111782963036      647.6437951481777
0.018800486056004474      647.4781788049324
0.018980860449944497      647.5664765994208
0.019159995073081745      647.6862458621699
0.019338238861906984      647.8374865931803
0.01951594600057618       648.0201987924517
0.019693473885270874      648.2343824599841
0.019871180993697383      648.4800375957776
0.020049424722219357      648.7571641998321
0.02022855925535152       649.0657622721477
0.0204089335301096        649.4058318127244
0.02057978862980686       649.8087444845522
0.020749585870478253      650.2146273301973
0.020918623449835097      650.6234803496602
0.021087203596881453      651.0353035429406
0.021255631003112355      651.4500969100386
0.021424211188215206      651.8678604509541
0.021593248843479067      652.2885941656872
0.021763046197501558      652.7122980542377
0.02193390144739785       653.1389721166059
0.022104756600747556      653.7097483313378
0.02227455384962815       654.2547550279362
0.02244359139306247       654.7739922064015
0.022612171461619885      655.2674598667336
0.022780598748604386      655.7351580089326
0.022949178775739036      656.1770866329982
0.02311821623655202       656.5932457389305
0.023288013362055097      656.9836353267297
0.023458868351919994      657.3482553963956
0.02363924250270423       657.7818004751007
0.023818376913674867      658.1683653820467
0.023996620521453065      658.5079501172337
0.02417432751014825       658.8005546806619
0.02435185527571118       659.046179072331
0.024529562295431146      659.2448232922414
0.02470780596507209       659.3964873403927
0.024886940468375387      659.5011712167849
0.025067314741423676      659.5588749214185
