% Model:              brazing.mph
% Version:            COMSOL 5.3.0.223
% Date:               Oct 20 2018, 03:00
% Dimension:          1
% Nodes:              193
% Expressions:        1
% Description:        Line graph
% x                       Height
0                         621.9673866277773
1.6028433640637486E-4     622.0473948578646
3.201839556876346E-4      622.1203722506515
4.7982673004648776E-4     622.186318806138
6.393411493738095E-4      622.2452345243244
7.988560137323205E-4      622.2971194052103
9.58500122107595E-4       622.3419734487957
0.0011184019611720658     622.3797966550808
0.0012786893978073315     622.4105890240655
0.0014692881782178572     622.434738948206
0.0016592398034323465     622.441777191404
0.0018487589083489172     622.4317037536595
0.00203806159906999       622.4045186349725
0.0022273647228667317     622.3602218353432
0.0024168851255237504     622.2988133547714
0.002606838908709185      622.2202931932571
0.0027974407000143733     622.1246613508004
0.003000214284638094      622.0015078426622
0.0032022105766743216     621.8623154713606
0.003403687017647933      621.7070842368956
0.0036049030444305387     621.5358141392672
0.0038061191011872996     621.3485051784754
0.004007595631967136      621.1451573545203
0.00420959207329518       620.9257706674017
0.00441236586612622       620.6903451171197
0.004615139632985625      620.4215783901725
0.004817136048636202      620.1493365818711
0.005018612553936322      619.8736196922152
0.005219828585313435      619.5944277212053
0.005421044586718146      619.3117606688411
0.0056225210022172924     619.0256185351225
0.005824517268584787      618.7360013200497
0.006027290827249049      618.4429090236226
0.006217890949519272      618.137757320467
0.006407844130704021      617.8512971123681
0.0065973647866391935     617.5835283993259
0.00678666880286996       617.3344511813405
0.006975972806121895      617.1040654584117
0.007165493423165078      616.8923712305397
0.007355446539677438      616.6993684977243
0.007546046571713631      616.5250572599657
0.00770633524869351       616.3949248042643
0.007866237248851195      616.2829177803973
0.008025880956992212      616.1890361883643
0.008185395381580456      616.1132800281656
0.008344909844757132      616.0556492998011
0.008504553668569658      616.0161440032708
0.008664455861201733      615.9947641385746
0.008824744806995652      615.9915097057127
0.008985029143401957      616.0086002962104
0.009144928762683142      616.0478999890777
0.009304571537041926      616.1094087843146
0.009464085956369179      616.1931266819211
0.00962360082072762       616.2990536818971
0.009783244929102828      616.4271897842428
0.009943146768167231      616.5775349889581
0.010103434204802428      616.7500892960429
0.010294032985212885      616.9494054869566
0.010483984610427306      617.168937408122
0.01067350371534381       617.408685059539
0.010862806406064813      617.6686484412076
0.011052109529861487      617.9488275531278
0.011241629932518437      618.2492223952995
0.011431583715703804      618.5698329677231
0.011622185507008923      618.9106592703981
0.011824959091632737      619.2459847311352
0.012026955383669057      619.5738244062827
0.012228431824642762      619.8941782958408
0.01242964785142546       620.2070463998092
0.012630863908182311      620.5124287181882
0.012832340438962243      620.8103252509775
0.01303433688029038       621.1007359981774
0.013237110673121513      621.3836609597877
0.013439884439981065      621.6366971693699
0.013641880855631786      621.8697903540441
0.013843357360932049      622.0829405138103
0.014044573392309304      622.2761476486686
0.014245789393714157      622.4494117586188
0.014447265809213447      622.6027328436611
0.014649262075581083      622.7361109037954
0.01485203563424549       622.8495459390217
0.015042635756515686      622.9439795411587
0.015232588937700405      623.02144922271
0.015422109593635547      623.0819549836755
0.015611413609866287      623.1254968240554
0.015800717613118194      623.1520747438498
0.01599023823016135       623.1616887430583
0.01618019134667368       623.1543388216814
0.016370791378709844      623.1300249797188
0.016531080055689654      623.0823949732918
0.01669098205584727       623.0316851881263
0.016850625763988217      622.9778956242221
0.017010140188576394      622.9210262815795
0.017169654651752998      622.8610771601984
0.017329298475565455      622.7980482600789
0.017489200668197463      622.7319395812207
0.01764948961399131       622.6627511236239
0.01780977395039525       622.5603169974346
0.017969673569674088      622.4460198973751
0.018129316344030533      622.3198598234458
0.01828883076335545       622.1818367756465
0.01844834562771156       622.0319507539773
0.01860798973608443       621.8702017584384
0.018767891575146484      621.6965897890293
0.018928179011779317      621.5111148457504
0.019118777792188433      621.2292044109562
0.019308729417401523      620.9245702189396
0.019498248522316707      620.597212269701
0.019687551213036395      620.2471305632403
0.019876854336831753      619.8743250995574
0.02006637473948738       619.4787958786522
0.020256328522671414      619.0605429005251
0.020446930313975188      618.6195661651758
0.02064970389860279       618.0869345764322
0.02085170019064286       617.5413015539007
0.02105317663162028       616.9826670975814
0.02125439265840668       616.4110312074741
0.021455608715167235      615.826393883579
0.02165708524595088       615.2287551258961
0.021859081687282764      614.6181149344254
0.02206185548011769       613.9944733091668
0.022264629246980954      613.3704445426862
0.022466625662635346      612.7590413081805
0.022668102167939252      612.1602636056498
0.022869318199320136      611.5741114350939
0.023070534200728618      611.000584796513
0.023272010616231548      610.439683689907
0.023474006882602858      609.891408115276
0.02367678044127098       609.35575807262
0.02386738056353977       608.8387144482706
0.024057333744723106      608.3569677929212
0.02424685440065687       607.9105181065717
0.024436158416886237      607.4993653892222
0.02462546242013677       607.1235096408727
0.024814983037178547      606.7829508615233
0.025004936153689494      606.4776890511737
0.025195536185724256      606.207724209824
0.0253558248627017        605.976510338315
0.025515726862856965      605.7753644763039
0.025675370570995573      605.6042866237905
0.02583488499558142       605.463276780775
0.02599439945875569       605.3523349472572
0.02615404328256581       605.2714611232371
0.026313945475195465      605.220655308715
0.026474234420986946      605.1999175036905
0.026634518757392422      605.2041877960836
0.02679441837667279       605.2350695135183
0.026954061151030752      605.2925626559944
0.02711357557035719       605.3766672235122
0.027273090434714816      605.4873832160714
0.027432734543089202      605.6247106336723
0.027592636382152785      605.7886494763146
0.02775292381878715       605.9791997439985
0.02794352259919713       606.217788308901
0.02813347422441108       606.4905386394702
0.028322993329327112      606.7974507357055
0.028512296020047647      607.1385245976073
0.02870159914384385       607.5137602251756
0.028891119546500334      607.9231576184103
0.02908107332968523       608.3667167773112
0.029271675120989875      608.8444377018787
0.02947444870561504       609.3680090427415
0.029676444997652693      609.9037168987521
0.02987792143862772       610.4515612699107
0.030079137465411736      611.011542156217
0.030280353522169904      611.5836595576714
0.030481830052951155      612.1679134742734
0.030683826494280624      612.7643039060234
0.030886600287113104      613.3728308529212
0.03108937405397396       613.9678563013935
0.03129137046962597       614.555901703756
0.03149284697492751       615.1369670600087
0.03169406300630604       615.7110523701516
0.03189527900771217       616.2781576341846
0.03209675542321274       616.8382828521079
0.03229875168958166       617.3914280239213
0.03250152524824737       617.9375931496248
0.03269212537051706       618.381957676154
0.03288207855170127       618.8012825995307
0.033071599207635916      619.1955679197554
0.033260903223866156      619.5648136368278
0.033450207227117564      619.9090197507479
0.033639727844160215      620.2281862615158
0.03382968096067204       620.5223131691315
0.034020280992707694      620.791400473595
0.034180569669686675      620.9817825852042
0.03434047166984347       621.1597693132888
0.0345001153779836        621.3253606578486
0.03465962980257096       621.4785566188838
0.03481914426574675       621.6193571963942
0.034978788089558385      621.74776239038
0.03513869028218957       621.8637722008409
0.035298979227982585      621.9673866277773
