% Model:              brazing.mph
% Version:            COMSOL 5.3.0.223
% Date:               Oct 20 2018, 02:12
% Dimension:          1
% Nodes:              193
% Expressions:        1
% Description:        Line graph
% x                       Height
0                         581.8764611216425
1.6028433640637486E-4     581.9488966548658
3.201839556876346E-4      582.014558124199
4.7982673004648776E-4     582.073445529642
6.393411493738095E-4      582.1255588711948
7.988560137323205E-4      582.1708981488574
9.58500122107595E-4       582.2094633626297
0.0011184019611720658     582.2412545125119
0.0012786893978073315     582.2662715985037
0.0014692881782178572     582.2846985981608
0.0016592398034323465     582.2874129694025
0.0018487589083489172     582.274414712229
0.00203806159906999       582.2457038266401
0.0022273647228667317     582.201280312636
0.0024168851255237504     582.1411441702164
0.002606838908709185      582.0652953993816
0.0027974407000143733     581.9737340001315
0.003000214284638094      581.8569710337313
0.0032022105766743216     581.7259423386193
0.003403687017647933      581.5806479147961
0.0036049030444305387     581.4210877622613
0.0038061191011872996     581.247261881015
0.004007595631967136      581.0591702710572
0.00420959207329518       580.8568129323877
0.00441236586612622       580.6401898650067
0.004615139632985625      580.3962360913722
0.004817136048636202      580.1491444920714
0.005018612553936322      579.8989150671046
0.005219828585313435      579.6455478164714
0.005421044586718146      579.3890427401723
0.0056225210022172924     579.1293998382068
0.005824517268584787      578.8666191105752
0.006027290827249049      578.6007005572776
0.006217890949519272      578.3253466535263
0.006407844130704021      578.0669145844935
0.0065973647866391935     577.825404350179
0.00678666880286996       577.6008159505831
0.006975972806121895      577.3931493857056
0.007165493423165078      577.2024046555464
0.007355446539677438      577.0285817601056
0.007546046571713631      576.8716806993833
0.00770633524869351       576.7538316535463
0.007866237248851195      576.65234208741
0.008025880956992212      576.5672120009747
0.008185395381580456      576.4984413942401
0.008344909844757132      576.4460302672063
0.008504553668569658      576.4099786198734
0.008664455861201733      576.3902864522413
0.008824744806995652      576.38695376431
0.008985029143401957      576.4014404836198
0.009144928762683142      576.4360848560448
0.009304571537041926      576.4908868815855
0.009464085956369179      576.5658465602415
0.00962360082072762       576.6609638920131
0.009783244929102828      576.7762388769
0.009943146768167231      576.9116715149025
0.010103434204802428      577.0672618060204
0.010294032985212885      577.2454519203768
0.010483984610427306      577.4419906781004
0.01067350371534381       577.6568780791913
0.010862806406064813      577.8901141236495
0.011052109529861487      578.1416988114748
0.011241629932518437      578.4116321426676
0.011431583715703804      578.6999141172275
0.011622185507008923      579.0065447351546
0.011824959091632737      579.3105958324996
0.012026955383669057      579.6079266522985
0.012228431824642762      579.8985371945515
0.01242964785142546       580.1824274592585
0.012630863908182311      580.4595974464197
0.012832340438962243      580.730047156035
0.01303433688029038       580.9937765881043
0.013237110673121513      581.2507857426277
0.013439884439981065      581.4847916916855
0.013641880855631786      581.7007595950313
0.013843357360932049      581.8986894526648
0.014044573392309304      582.0785812645864
0.014245789393714157      582.2404350307959
0.014447265809213447      582.3842507512933
0.014649262075581083      582.5100284260785
0.01485203563424549       582.6177680551517
0.015042635756515686      582.7082646633758
0.015232588937700405      582.7831540746193
0.015422109593635547      582.8424362888824
0.015611413609866287      582.8861113061652
0.015800717613118194      582.9141791264676
0.01599023823016135       582.9266397497896
0.01618019134667368       582.9234931761313
0.016370791378709844      582.9047394054925
0.016531080055689654      582.864727241738
0.01669098205584727       582.8214767578697
0.016850625763988217      582.774987953888
0.017010140188576394      582.7252608297923
0.017169654651752998      582.6722953855831
0.017329298475565455      582.61609162126
0.017489200668197463      582.5566495368234
0.01764948961399131       582.493969132273
0.01780977395039525       582.4019746848103
0.017969673569674088      582.2990779143764
0.018129316344030533      582.1852788209718
0.01828883076335545       582.0605774045961
0.01844834562771156       581.9249736652495
0.01860798973608443       581.7784676029316
0.018767891575146484      581.621059217643
0.018928179011779317      581.4527485093834
0.019118777792188433      581.1960961386927
0.019308729417401523      580.9187060615433
0.019498248522316707      580.6205782779352
0.019687551213036395      580.3017127878684
0.019876854336831753      579.9621095913428
0.02006637473948738       579.6017686883584
0.020256328522671414      579.2206900789154
0.020446930313975188      578.8188737630136
0.02064970389860279       578.3402495866861
0.02085170019064286       577.8498194831195
0.02105317663162028       577.3475834523142
0.02125439265840668       576.8335414942699
0.021455608715167235      576.3076936089867
0.02165708524595088       575.7700397964646
0.021859081687282764      575.2205800567036
0.02206185548011769       574.6593143897038
0.022264629246980954      574.1015847490816
0.022466625662635346      573.5550210289798
0.022668102167939252      573.0196232293982
0.022869318199320136      572.4953913503372
0.023070534200728618      571.9823253917965
0.023272010616231548      571.4804253537761
0.023474006882602858      570.9896912362761
0.02367678044127098       570.5101230392966
0.02386738056353977       570.0483672445562
0.024057333744723106      569.6182224198287
0.02424685440065687       569.2196885651138
0.024436158416886237      568.8527656804116
0.02462546242013677       568.517453765722
0.024814983037178547      568.2137528210453
0.025004936153689494      567.9416628463812
0.025195536185724256      567.7011838417297
0.0253558248627017        567.4940655264455
0.025515726862856965      567.3140378307396
0.025675370570995573      567.1611007546119
0.02583488499558142       567.0352542980627
0.02599439945875569       566.9364984610918
0.02615404328256581       566.8648332436991
0.026313945475195465      566.8202586458848
0.026474234420986946      566.8027746676488
0.026634518757392422      566.8069067119353
0.02679441837667279       566.835014551982
0.026954061151030752      566.8870981877889
0.02711357557035719       566.963157619356
0.027273090434714816      567.0631928466834
0.027432734543089202      567.1872038697709
0.027592636382152785      567.3351906886186
0.02775292381878715       567.5071533032266
0.02794352259919713       567.7206088452776
0.02813347422441108       567.9646393891271
0.028322993329327112      568.2392449347748
0.028512296020047647      568.5444254822208
0.02870159914384385       568.8801810314652
0.028891119546500334      569.246511582508
0.02908107332968523       569.643417135349
0.029271675120989875      570.0708976899883
0.02947444870561504       570.5409182321279
0.029676444997652693      571.0214873139729
0.02987792143862772       571.5126049355235
0.030079137465411736      572.0142710967798
0.030280353522169904      572.5264857977415
0.030481830052951155      573.0492490384089
0.030683826494280624      573.582560818782
0.030886600287113104      574.1264211388605
0.03108937405397396       574.660416792762
0.03129137046962597       575.1882678637074
0.03149284697492751       575.709974351697
0.03169406300630604       576.2255362567306
0.03189527900771217       576.7349535788084
0.03209675542321274       577.2382263179301
0.03229875168958166       577.735354474096
0.03250152524824737       578.2263380473058
0.03269212537051706       578.6275121358249
0.03288207855170127       579.0061629392421
0.033071599207635916      579.3622904575573
0.033260903223866156      579.6958946907705
0.033450207227117564      580.0069756388817
0.033639727844160215      580.2955333018912
0.03382968096067204       580.5615676797985
0.034020280992707694      580.8050787726039
0.034180569669686675      580.9791885644415
0.03434047166984347       581.1418163567911
0.0345001153779836        581.2929621496528
0.03465962980257096       581.4326259430266
0.03481914426574675       581.5608077369124
0.034978788089558385      581.6775075313104
0.03513869028218957       581.7827253262203
0.035298979227982585      581.8764611216425
