% Model:              brazing.mph
% Version:            COMSOL 5.3.0.223
% Date:               Oct 20 2018, 02:40
% Dimension:          1
% Nodes:              145
% Expressions:        1
% Description:        Line graph
% x                       Height
0                         647.9032016407134
1.8037553861809572E-4     648.1795476322287
3.5951128344368776E-4     648.3989767467722
5.377561773732229E-4      648.5614889843441
7.154644111300318E-4      648.6670843449446
8.929933875627798E-4      648.7157628285731
0.0010707015910786408     648.7075244352303
0.0012489464247083767     648.6423691649155
0.0014280820795340731     648.5202970176292
0.0016084574989771061     648.3413079933714
0.0017793134314883058     648.2709288027232
0.0019491114898538484     648.1742547303711
0.002118149876008701      648.0512857763154
0.0022867308232763497     647.9020219405558
0.002455159027530182      647.7264632230922
0.0026237400128558564     647.524609623925
0.0027927784749207734     647.2964611430539
0.0029625766466419693     647.0420177804789
0.0031334327293582195     646.7612795362003
0.0033042867504275058     646.5723448857497
0.0034740828875811486     646.3780817008875
0.0036431193341009516     646.178489981614
0.0038116983146850476     645.973569727929
0.003980124516686077      645.7633209398325
0.004148703455848711      645.5477436173246
0.004317739819749776      645.3268377604052
0.004487535833529769      645.1006033690744
0.004658389691119368      644.8690404433321
0.0048387629974717405     644.7376551469757
0.005017896580971026      644.6120725571452
0.005196139373513023      644.4922926738411
0.0053738455543625        644.3783154970631
0.005551372514551955      644.270141026811
0.005729078726427549      644.1677692630852
0.005907321580834967      644.0712002058854
0.006086455256670912      643.9804338552117
0.006266828685292636      643.8954702110642
0.0064472042239161545     644.0512383880489
0.0066263399687470585     644.2160343704244
0.00680458486268183       644.3898581581908
0.0069822930964438265     644.5727097513482
0.007159822072881748      644.7645891498964
0.007337530276402798      644.9654963538358
0.007515775110037768      645.1754313631659
0.007694910764868775      645.3943941778869
0.007875286184317232      645.6223847979988
0.008046142116827224      645.9138594804668
0.008215940175191578      646.1965264308718
0.008384978561345261      646.470385649214
0.008553559508611747      646.7354371354935
0.008721987712864422      646.9916808897101
0.008890568698188937      647.2391169118639
0.00905960716025268       647.4777452019547
0.009229405331972688      647.7075657599829
0.009400261414687729      647.9285785859482
0.009571115435747398      648.2693590339051
0.009740911572891598      648.5784745812941
0.009909948019402086      648.8559252281159
0.010078526999976944      649.1017109743701
0.010246953201968763      649.3158318200568
0.010415532141122159      649.498287765176
0.010584568505013912      649.6490788097277
0.010754364518784467      649.7682049537118
0.010925218376364454      649.8556661971285
0.011105591682722255      650.026486656434
0.01128472526622686       650.1482376449283
0.011462968058774099      650.2209191626115
0.011640674239628768      650.2445312094835
0.011818201199823401      650.2190737855443
0.01199590741170419       650.1445468907939
0.012174150266116847      650.0209505252324
0.012353283941958112      649.8482846888595
0.012533657370585264      649.6265493816755
0.01271403176453574       649.5799712040658
0.012893166387683227      649.4761144022859
0.013071410176518557      649.3149789763361
0.013249117315197753      649.0965649262162
0.013426645199902413      648.8208722519262
0.013604352308338922      648.487900953466
0.01378259603687098       648.0976510308358
0.013961730570013379      647.6501224840357
0.014142104844781908      647.1453153130653
0.014312959944399205      646.7147538593129
0.014482757184992078      646.258664482664
0.014651794764271453      645.7770471831192
0.014820374911240972      645.2699019606782
0.014988802317395246      644.7372288153412
0.01515738250242126       644.179027747108
0.015326420157607648      643.5952987559787
0.015496217511551624      642.986041841953
0.015667072761367945      642.3512570050315
0.01583792791479403       641.7974667023216
0.016007725163749622      641.2521635266532
0.01617676270725794       640.7153474780268
0.01634534277588875       640.1870185564422
0.016513770062946447      639.6671767618993
0.01668235009015449       639.1558220943983
0.016851387551041475      638.6529545539389
0.017021184676619543      638.1585741405212
0.017192039666560827      637.6726808541456
0.017372413817338207      637.2706982484264
0.017551548228302124      636.8969656345884
0.017729791836073705      636.5514830126325
0.017907498824762332      636.2342503825581
0.018085026590318725      635.9452677443654
0.018262733610032132      635.6845350980545
0.018440977279666457      635.4520524436251
0.018620111782963036      635.2478197810773
0.018800486056004474      635.0718371104115
0.018980860449944497      635.1597221168792
0.019159995073081745      635.2816332648123
0.019338238861906984      635.4375705542111
0.01951594600057618       635.6275339850755
0.019693473885270874      635.8515235574055
0.019871180993697383      636.109539271201
0.020049424722219357      636.4015811264622
0.02022855925535152       636.7276491231889
0.0204089335301096        637.0877432613812
0.02057978862980686       637.5146287386898
0.020749585870478253      637.945134550824
0.020918623449835097      638.3792606977846
0.021087203596881453      638.8170071795713
0.021255631003112355      639.258373996184
0.021424211188215206      639.7033611476227
0.021593248843479067      640.1519686338873
0.021763046197501558      640.604196454978
0.02193390144739785       641.0600446108949
0.022104756600747556      641.6652138016099
0.02227455384962815       642.2434285471603
0.02244359139306247       642.7946888475469
0.022612171461619885      643.3189947027695
0.022780598748604386      643.8163461128278
0.022949178775739036      644.286743077722
0.02311821623655202       644.7301855974522
0.023288013362055097      645.146673672018
0.023458868351919994      645.5362073014198
0.02363924250270423       645.9970436905367
0.023818376913674867      646.4084208251322
0.023996620521453065      646.770338705207
0.02417432751014825       647.0827973307606
0.02435185527571118       647.3457967017932
0.024529562295431146      647.5593368183049
0.02470780596507209       647.7234176802955
0.024886940468375387      647.8380392877649
0.025067314741423676      647.9032016407134
