% Model:              brazing.mph
% Version:            COMSOL 5.3.0.223
% Date:               Oct 20 2018, 01:35
% Dimension:          1
% Nodes:              193
% Expressions:        1
% Description:        Line graph
% x                       Height
0                         595.852817539151
1.6028433640637486E-4     595.928932809961
3.201839556876346E-4      595.998131160148
4.7982673004648776E-4     596.060412589712
6.393411493738095E-4      596.1157770986531
7.988560137323205E-4      596.1642246869712
9.58500122107595E-4       596.2057553546666
0.0011184019611720658     596.240369101739
0.0012786893978073315     596.2680659281884
0.0014692881782178572     596.2896503429772
0.0016592398034323465     596.2952978460183
0.0018487589083489172     596.2850084373123
0.00203806159906999       596.2587821168587
0.0022273647228667317     596.2166188846577
0.0024168851255237504     596.1585187407094
0.002606838908709185      596.0844816850137
0.0027974407000143733     595.9945077175705
0.003000214284638094      595.8733382557781
0.0032022105766743216     595.737415650581
0.003403687017647933      595.5867399019795
0.0036049030444305387     595.4213110099734
0.0038061191011872996     595.2411289745627
0.004007595631967136      595.0461937957474
0.00420959207329518       594.8365054735275
0.00441236586612622       594.6120640079031
0.004615139632985625      594.3583272176063
0.004817136048636202      594.1011700215147
0.005018612553936322      593.8405924196285
0.005219828585313435      593.5765944119476
0.005421044586718146      593.3091759984719
0.0056225210022172924     593.0383371792017
0.005824517268584787      592.7640779541367
0.006027290827249049      592.4863983232771
0.006217890949519272      592.1956932949828
0.006407844130704021      591.9230002891053
0.0065973647866391935     591.6683193056447
0.00678666880286996       591.4316503446007
0.006975972806121895      591.2129934059736
0.007165493423165078      591.0123484897632
0.007355446539677438      590.8297155959696
0.007546046571713631      590.6650947245928
0.00770633524869351       590.5420205558476
0.007866237248851195      590.4361549626775
0.008025880956992212      590.347497945083
0.008185395381580456      590.2760495030637
0.008344909844757132      590.2218096366198
0.008504553668569658      590.1847783457513
0.008664455861201733      590.164955630458
0.008824744806995652      590.1623414907401
0.008985029143401957      590.1782945390972
0.009144928762683142      590.2157278683206
0.009304571537041926      590.2746414784103
0.009464085956369179      590.3550353693663
0.00962360082072762       590.4569095411887
0.009783244929102828      590.5802639938772
0.009943146768167231      590.725098727432
0.010103434204802428      590.8914137418532
0.010294032985212885      591.0817256848095
0.010483984610427306      591.2915047411965
0.01067350371534381       591.5207509110141
0.010862806406064813      591.7694641942625
0.011052109529861487      592.0376445909415
0.011241629932518437      592.3252921010513
0.011431583715703804      592.6324067245918
0.011622185507008923      592.958988461563
0.011824959091632737      593.2802565846489
0.012026955383669057      593.5941276690562
0.012228431824642762      593.9006017147849
0.01242964785142546       594.199678721835
0.012630863908182311      594.4913586902064
0.012832340438962243      594.7756416198993
0.01303433688029038       595.0525275109135
0.013237110673121513      595.3220163632491
0.013439884439981065      595.5667736928972
0.013641880855631786      595.792404246642
0.013843357360932049      595.9989080244837
0.014044573392309304      596.1862850264222
0.014245789393714157      596.3545352524574
0.014447265809213447      596.5036587025894
0.014649262075581083      596.6336553768181
0.01485203563424549       596.7445252751436
0.015042635756515686      596.8353953877329
0.015232588937700405      596.9102463180876
0.015422109593635547      596.9690780662077
0.015611413609866287      597.0118906320929
0.015800717613118194      597.0386840157435
0.01599023823016135       597.0494582171594
0.01618019134667368       597.0442132363406
0.016370791378709844      597.0229490732872
0.016531080055689654      596.9791962881852
0.01669098205584727       596.9322101751327
0.016850625763988217      596.8819907341295
0.017010140188576394      596.8285379651759
0.017169654651752998      596.7718518682716
0.017329298475565455      596.7119324434167
0.017489200668197463      596.6487796906113
0.01764948961399131       596.5823936098553
0.01780977395039525       596.4859511891655
0.017969673569674088      596.3781325212121
0.018129316344030533      596.2589376059955
0.01828883076335545       596.1283664435153
0.01844834562771156       595.9864190337718
0.01860798973608443       595.8330953767647
0.018767891575146484      595.6683954724942
0.018928179011779317      595.4923193209604
0.019118777792188433      595.2236553281289
0.019308729417401523      594.9333198059522
0.019498248522316707      594.621312754431
0.019687551213036395      594.2876341735647
0.019876854336831753      593.9322840633536
0.02006637473948738       593.5552624237977
0.020256328522671414      593.1565692548968
0.020446930313975188      592.736204556651
0.02064970389860279       592.2302685790563
0.02085170019064286       591.7115792538864
0.02105317663162028       591.1801365811417
0.02125439265840668       590.635940560822
0.021455608715167235      590.0789911929272
0.02165708524595088       589.5092884774576
0.021859081687282764      588.9268324144131
0.02206185548011769       588.3316230037934
0.022264629246980954      587.7396433500953
0.022466625662635346      587.1593958147239
0.022668102167939252      586.5908803976788
0.022869318199320136      586.0340970989603
0.023070534200728618      585.4890459185683
0.023272010616231548      584.9557268565028
0.023474006882602858      584.434139912764
0.02367678044127098       583.9242850873516
0.02386738056353977       583.4315048127768
0.024057333744723106      582.972411510733
0.02424685440065687       582.5470051812205
0.024436158416886237      582.155285824239
0.02462546242013677       581.7972534397885
0.024814983037178547      581.4729080278693
0.025004936153689494      581.1822495884811
0.025195536185724256      580.925278121624
0.0253558248627017        580.7037769266259
0.025515726862856965      580.5110870740347
0.025675370570995573      580.3472085638507
0.02583488499558142       580.2121413960735
0.02599439945875569       580.1058855707034
0.02615404328256581       580.0284410877404
0.026313945475195465      579.9798079471843
0.026474234420986946      579.9599861490353
0.026634518757392422      579.9633374953801
0.02679441837667279       579.9920778586528
0.026954061151030752      580.0462072388538
0.02711357557035719       580.1257256359828
0.027273090434714816      580.2306330500401
0.027432734543089202      580.3609294810252
0.027592636382152785      580.5166149289387
0.02775292381878715       580.6976893937801
0.02794352259919713       580.9225819356515
0.02813347422441108       581.1799499404224
0.028322993329327112      581.4697934080923
0.028512296020047647      581.7921123386617
0.02870159914384385       582.1469067321303
0.028891119546500334      582.5341765884984
0.02908107332968523       582.9539219077658
0.029271675120989875      583.4061426899325
0.02947444870561504       583.9028335955028
0.029676444997652693      584.4106469692799
0.02987792143862772       584.929582811264
0.030079137465411736      585.4596411214551
0.030280353522169904      586.000821899853
0.030481830052951155      586.553125146458
0.030683826494280624      587.11655086127
0.030886600287113104      587.6910990442888
0.03108937405397396       588.2553473990544
0.03129137046962597       588.8135698469301
0.03149284697492751       589.3657663879162
0.03169406300630604       589.9119370220125
0.03189527900771217       590.452081749219
0.03209675542321274       590.9862005695356
0.03229875168958166       591.5142934829627
0.03250152524824737       592.0363604894998
0.03269212537051706       592.4554197095498
0.03288207855170127       592.8511456957744
0.033071599207635916      593.2235384481739
0.033260903223866156      593.5725979667482
0.033450207227117564      593.898324251497
0.033639727844160215      594.2007173024207
0.03382968096067204       594.4797771195191
0.034020280992707694      594.7355037027921
0.034180569669686675      594.9171363062053
0.03434047166984347       595.0867779456561
0.0345001153779836        595.2444286211445
0.03465962980257096       595.3900883326705
0.03481914426574675       595.5237570802342
0.034978788089558385      595.6454348638356
0.03513869028218957       595.7551216834745
0.035298979227982585      595.852817539151
