% Model:              brazing.mph
% Version:            COMSOL 5.3.0.223
% Date:               Oct 20 2018, 00:48
% Dimension:          1
% Nodes:              225
% Expressions:        1
% Description:        Line graph
% x                       Height
0                         624.2524414554719
2.3022181212578358E-4     624.1244436700129
4.5999325066962656E-4     623.969316360803
6.894940081029028E-4      623.7870595278421
9.189044129547812E-4      623.5776731711302
0.001148405006736289      623.3411572906675
0.0013781761183620641     623.0775118864536
0.001608397441069865      622.786736958489
0.001839314118928521      622.1134643643256
0.0020697760201574002     621.4438144007645
0.002299964597801726      620.7777870678055
0.0025300619515304015     620.1153823654489
0.0027602503975112853     619.4566002936947
0.0029907120357255193     618.8014408525427
0.003221628319839081      618.1499040419928
0.0034518885683530987     617.2894048265226
0.0036816980188178403     616.4223394036921
0.003911236592567028      615.5487077735016
0.004140684848157368      614.6685099359507
0.004370223557282477      613.7817458910399
0.004600033278179856      612.8884156387685
0.004830293931548535      611.9885191791371
0.005060048526376791      610.8978234771652
0.005289355629682316      609.8206158766558
0.005518393850920054      608.756896377609
0.005747342428834         607.7066649800249
0.00597638081262499       606.6699216839039
0.006205688240655705      605.646666489245
0.006435443321622868      604.6368993960491
0.006665339619110656      603.5412053468025
0.006894787442849326      602.4664724175352
0.007123965728649401      601.4127006082472
0.007353054043912613      600.3798899189385
0.007582232167524012      599.3680403496091
0.007811679667266285      598.3771519002589
0.008041575479707366      597.407224570888
0.008271887219609135      596.4243784544828
0.008501747728772392      595.4767675457484
0.008731337046705121      594.5643918446848
0.008960835851156599      593.6872513512919
0.009190425033567954      592.8453460655701
0.009420285272008154      592.0386759875188
0.009650596606620833      591.2672411171385
0.009881512912836019      590.5183221179235
0.010111974573021956      589.8175112984065
0.010342163040896366      589.1648086585873
0.010572260416492441      588.560214198466
0.010802449016030204      588.0037279180431
0.011032910939230619      587.4953498173176
0.011263827639190652      587.0350798962903
0.011494048967061755      586.5953863585893
0.011723820083820682      586.2281064108707
0.011953320682717213      585.9332400531347
0.012182731092678062      585.7107872853812
0.012412231855226382      585.5607481076105
0.012642003298903411      585.483122519822
0.012872225116192546      585.4779105220163
0.013102446994778118      585.3388381849201
0.013332218499393473      585.2910675299677
0.01356171932266464       585.334598557159
0.013791129793276359      585.4694312664941
0.01402063045289555       585.6955656579732
0.014250401630592404      586.0130017315956
0.014480623019759359      586.4217394873622
0.014711539835704642      586.6762256793537
0.014942001874208778      587.0089389436172
0.015172190588640395      587.4198792801524
0.01540228807899374       587.9090466889597
0.015632476661762654      588.476441170039
0.015862938437253588      589.1220627233901
0.01609385485945594       589.8459113490131
0.016324115336228646      590.4914115356377
0.016553925013622208      591.1757067448581
0.016783463813500554      591.8987969766741
0.017012912294953733      592.660682231086
0.01724245123020976       593.4613625080938
0.01747226117803945       594.3008378076971
0.017702522059672054      595.1791081298963
0.017932276794613372      596.0536917965641
0.018161584037218948      596.9547328730878
0.018390622397267263      597.8822313594673
0.018619571113827754      598.8361872557027
0.018848609636427344      599.8166005617945
0.019077917203754128      600.8234712777419
0.019307672424828403      601.8567994035453
0.019537568573699274      602.790549382893
0.01976701624968263       603.7412015314997
0.019996194388245302      604.7087558493647
0.020225282556443316      605.6932123364887
0.020454460532815345      606.6945709928717
0.02068390788479834       607.7128318185131
0.020913803548616574      608.7479948134135
0.02114411498977932       609.5678974451342
0.021373975201947604      610.4026796004499
0.02160356422393484       611.2523412793603
0.02183306273279162       612.1168824818657
0.02206265161925901       612.9963032079661
0.02229251156070728       613.890603457661
0.02252282259658549       614.799783230951
0.022753738766914562      615.3793226262147
0.022984200292012823      615.962836920276
0.023214388625279938      616.5503261131349
0.023444485866429166      617.1417902047915
0.023674674331359946      617.7372291952458
0.023905136119473275      618.3366430844976
0.024136052683548088      618.940031872547
0.024366274021741702      619.1420307625052
0.024596045148762867      619.3473875944702
0.024825545757885373      619.5561023684418
0.02505495617806012       619.76817508442
0.02528445695083446       619.9836057424051
0.025514228404773787      620.2023943423966
0.025744450232385536      620.4245408843949
0.025974672267095825      620.2962273101132
0.026204443926923768      620.1474866783318
0.02643394490485871       619.9783189890508
0.02666335552995085       619.7887242422701
0.026892856344233315      619.57870243799
0.02712262767714175       619.3482535762099
0.02735284922243193       619.0973776569305
0.027583766528201624      618.4607661301185
0.027814229053652367      617.8165031534959
0.028044418253299775      617.1645887270629
0.02827451622829193       616.5050228508192
0.028504705296278778      615.8378055247654
0.028735167558720572      615.1629367489007
0.028966084470753738      614.4804165232257
0.029196345605491433      613.641281073405
0.02942615593701711       612.7736395030216
0.02965569538872289       611.8774918120753
0.029885144521236064      610.9528380005663
0.030114684108324883      609.9996780684946
0.030344494710297387      609.0180120158601
0.030574756249911007      608.0078398426629
0.030804511377321087      606.9027758464936
0.031033819010118435      605.7907298527974
0.031262857758987544      604.6717018615743
0.03149180686390927       603.5456918728245
0.031720845775323685      602.412699886548
0.031950153732830305      601.2727259027444
0.032179909346355486      600.1257699214141
0.0324098051544111        598.9879118265854
0.032639252491552244      597.8587909630947
0.03286843029245836       596.738407330942
0.0330975181233935        595.6267609301271
0.03332669576210278       594.5238517606507
0.03355614277523119       593.4296798225118
0.033786038098215655      592.3442451157111
0.034016348759356954      591.3051861252076
0.03424620819605658       590.3004937228424
0.034475796445315066      589.3301679086157
0.03470529418235937       588.3942086825278
0.03493488229610333       587.4926160445787
0.035164741462093585      586.6253899947677
0.03539505171796626       585.7925305330956
0.035625967353597694      585.0191267751464
0.03585642834714083       584.30061293647
0.036086616150743635      583.6369890170655
0.03631671286286018       583.0282550169336
0.03654690079812825       582.4744109360745
0.036777362054689705      581.9754567744873
0.03700827808407173       581.5313925321727
0.03723849938140827       581.1381180346083
0.03746827046781093       580.8234885167049
0.03769777103645843       580.5875039784623
0.03792718141620601       580.4301644198811
0.0381566821485052        580.3514698409609
0.03838645356182577       580.3514202417016
0.03861667534858004       580.4300156221035
0.038846895274787324      580.4253292779201
0.039076664838430766      580.5166852417905
0.03930616372759302       580.7040835137145
0.03953557226638858       580.9875240936923
0.039765070991905134      581.3670069817241
0.039994840228642616      581.8425321778093
0.040225059665450036      582.4140996819484
0.04045597761776665       582.887007909042
0.04068644078597457       583.4389726508564
0.04091663062609736       584.0699939073911
0.041146729240799984      584.7800716786464
0.04137691894925231       585.5692059646226
0.04160738185443156       586.4373967653191
0.04183829941298208       587.3846440807364
0.04206856149768976       588.2859098256864
0.04229837277362926       589.2232144812284
0.04252791316640542       590.1965580473623
0.04275736323887129       591.2059405240883
0.04298690376702529       592.2513619114065
0.04321671531340127       593.3328222093165
0.04344697780296935       594.4503214178187
0.043676731016186174      595.6192817509117
0.04390603674591497       596.7976423840712
0.04413507359840861       597.9854033172971
0.04436402080919017       599.1825645505896
0.044593057824233256      600.3891260839489
0.04482236387867965       601.6050879173744
0.045052117578024006      602.8304500508665
0.045282012653644836      604.0566372070103
0.045511459262636354      605.2686955703924
0.04574063633797325       606.4666251410125
0.04596972344420469       607.6504259188707
0.046198900357357554      608.820097903967
0.046428346642361965      609.9756410963013
0.04665824123294997       611.1170554958737
0.04688855484177433       612.1689030083405
0.04711841720894409       613.2007753269465
0.04734800837831597       614.2126724516917
0.04757750903201372       615.2045943825763
0.047807100065861544      616.1765411196002
0.04803696216230292       617.1285126627632
0.04826727536583021       618.0605090120657
0.048498193048686675      618.7816483277305
0.048728656077441146      619.480506607497
0.04895884590902903       620.157083851365
0.04918894464672031       620.8113800593347
0.04941913460997818       621.4433952314066
0.04964959790176041       622.0531293675796
0.04988051597838159       622.6405824678546
0.05011073543954296       622.898063051388
0.0503405047004922        623.1464719636302
0.05057000345013497       623.385809204581
0.05079941201302823       623.6160747742406
0.05102891092631677       623.8372686726092
0.05125868051417213       624.049390899686
0.051488900464733596      624.2524414554719
