% Model:              brazing.mph
% Version:            COMSOL 5.3.0.223
% Date:               Oct 20 2018, 03:18
% Dimension:          1
% Nodes:              145
% Expressions:        1
% Description:        Line graph
% x                       Height
0                         609.1590863102602
1.8037553861809572E-4     609.4071988333311
3.5951128344368776E-4     609.6036736668831
5.377561773732229E-4      609.7485108109165
7.154644111300318E-4      609.8417102654313
8.929933875627798E-4      609.8832720304274
0.0010707015910786408     609.8731961059049
0.0012489464247083767     609.8114824918636
0.0014280820795340731     609.6981311883035
0.0016084574989771061     609.5331421952249
0.0017793134314883058     609.4689600381724
0.0019491114898538484     609.3811023149567
0.002118149876008701      609.2695690255781
0.0022867308232763497     609.1343601700363
0.002455159027530182      608.9754757483314
0.0026237400128558564     608.7929157604634
0.0027927784749207734     608.5866802064322
0.0029625766466419693     608.3567690862379
0.0031334327293582195     608.1031823998807
0.0033042867504275058     607.935234126136
0.0034740828875811486     607.7622978640957
0.0036431193341009516     607.5843736137599
0.0038116983146850476     607.4014613751286
0.003980124516686077      607.2135611482018
0.004148703455848711      607.0206729329794
0.004317739819749776      606.8227967294614
0.004487535833529769      606.6199325376479
0.004658389691119368      606.4120803575388
0.0048387629974717405     606.2953951832941
0.005017896580971026      606.1832468593074
0.005196139373513023      606.0756353855794
0.0053738455543625        605.9725607621097
0.005551372514551955      605.8740229888982
0.005729078726427549      605.7800220659452
0.005907321580834967      605.6905579932505
0.006086455256670912      605.6056307708143
0.006266828685292636      605.5252403986364
0.0064472042239161545     605.6680519721572
0.0066263399687470585     605.81846232916
0.00680458486268183       605.976471469645
0.0069822930964438265     606.1420793936122
0.007159822072881748      606.3152861010615
0.007337530276402798      606.496091591993
0.007515775110037768      606.6844958664066
0.007694910764868775      606.8804989243022
0.007875286184317232      607.08410076568
0.008046142116827224      607.3446235142662
0.008215940175191578      607.5970037970478
0.008384978561345261      607.8412416140252
0.008553559508611747      608.0773369651982
0.008721987712864422      608.3052898505667
0.008890568698188937      608.525100270131
0.00905960716025268       608.7367682238906
0.009229405331972688      608.9402937118459
0.009400261414687729      609.1356767339968
0.009571115435747398      609.4428366559857
0.009740911572891598      609.721395383821
0.009909948019402086      609.9713529175029
0.010078526999976944      610.1927092570314
0.010246953201968763      610.3854644024066
0.010415532141122159      610.5496183536281
0.010584568505013912      610.6851711106964
0.010754364518784467      610.7921226736111
0.010925218376364454      610.8704730423723
0.011105591682722255      611.0267185675008
0.01128472526622686       611.1387977320398
0.011462968058774099      611.2067105359897
0.011640674239628768      611.2304569793505
0.011818201199823401      611.2100370621218
0.01199590741170419       611.1454507843041
0.012174150266116847      611.0366981458969
0.012353283941958112      610.8837791469006
0.012533657370585264      610.686693787315
0.01271403176453574       610.6553973987787
0.012893166387683227      610.5721538013341
0.013071410176518557      610.4369629949814
0.013249117315197753      610.2498249797206
0.013426645199902413      610.0107397555515
0.013604352308338922      609.7197073224744
0.01378259603687098       609.3767276804889
0.013961730570013379      608.9818008295953
0.014142104844781908      608.5349267697935
0.014312959944399205      608.1563660216966
0.014482757184992078      607.754544834281
0.014651794764271453      607.3294632075468
0.014820374911240972      606.8811211414942
0.014988802317395246      606.4095186361229
0.01515738250242126       605.914655691433
0.015326420157607648      605.3965323074245
0.015496217511551624      604.8551484840974
0.015667072761367945      604.2905042214519
0.01583792791479403       603.8011287302355
0.016007725163749622      603.3189090575539
0.01617676270725794       602.8438452034077
0.01634534277588875       602.3759371677966
0.016513770062946447      601.9151849507206
0.01668235009015449       601.4615885521797
0.016851387551041475      601.015147972174
0.017021184676619543      600.5758632107031
0.017192039666560827      600.1437342677676
0.017372413817338207      599.7876946357763
0.017551548228302124      599.4560462477862
0.017729791836073705      599.1487891037974
0.017907498824762332      598.8659232038101
0.018085026590318725      598.6074485478239
0.018262733610032132      598.3733651358391
0.018440977279666457      598.1636729678555
0.018620111782963036      597.9783720438732
0.018800486056004474      597.8174623638922
0.018980860449944497      597.9003068139855
0.019159995073081745      598.0128590568949
0.019338238861906984      598.1551190926206
0.01951594600057618       598.3270869211625
0.019693473885270874      598.5287625425208
0.019871180993697383      598.7601459566953
0.020049424722219357      599.021237163686
0.02022855925535152       599.312036163493
0.0204089335301096        599.6325429561161
0.02057978862980686       600.0126930448673
0.020749585870478253      600.3954154888319
0.020918623449835097      600.7807102880101
0.021087203596881453      601.168577442402
0.021255631003112355      601.5590169520074
0.021424211188215206      601.9520288168263
0.021593248843479067      602.3476130368588
0.021763046197501558      602.7457696121048
0.02193390144739785       603.1464985425645
0.022104756600747556      603.6858135054001
0.02227455384962815       604.2003692005533
0.02244359139306247       604.6901656280241
0.022612171461619885      605.1552027878125
0.022780598748604386      605.5954806799186
0.022949178775739036      606.0109993043422
0.02311821623655202       606.4017586610836
0.023288013362055097      606.7677587501423
0.023458868351919994      607.1089995715188
0.02363924250270423       607.5159711622534
0.023818376913674867      607.8781467091582
0.023996620521453065      608.1955262122334
0.02417432751014825       608.4681096714788
0.02435185527571118       608.6958970868945
0.024529562295431146      608.8788884584807
0.02470780596507209       609.0170837862369
0.024886940468375387      609.1104830701634
0.025067314741423676      609.1590863102602
