% Model:              brazing.mph
% Version:            COMSOL 5.3.0.223
% Date:               Oct 20 2018, 00:21
% Dimension:          1
% Nodes:              225
% Expressions:        1
% Description:        Line graph
% x                       Height
0                         654.7771761256467
2.3022181212578358E-4     654.6544770158554
4.5999325066962656E-4     654.503958724559
6.894940081029028E-4      654.3256212517573
9.189044129547812E-4      654.1194645974504
0.001148405006736289      653.8854887616387
0.0013781761183620641     653.6236937443215
0.001608397441069865      653.3340795454994
0.001839314118928521      652.6655312995952
0.0020697760201574002     652.0004589886242
0.002299964597801726      651.3388626125867
0.0025300619515304015     650.6807421714824
0.0027602503975112853     650.0260976653119
0.0029907120357255193     649.3749290940744
0.003221628319839081      648.7272364577706
0.0034518885683530987     647.8718137489228
0.0036816980188178403     647.009768254522
0.003911236592567028      646.1410999745676
0.004140684848157368      645.2658089090601
0.004370223557282477      644.3838950579996
0.004600033278179856      643.4953584213854
0.004830293931548535      642.6001989992182
0.005060048526376791      641.5146440480588
0.005289355629682316      640.4427539824782
0.005518393850920054      639.3845288024762
0.005747342428834         638.3399685080533
0.00597638081262499       637.3090730992093
0.006205688240655705      636.2918425759439
0.006435443321622868      635.2882769382574
0.006665339619110656      634.1987006239882
0.006894787442849326      633.130409658544
0.007123965728649401      632.0834040419247
0.007353054043912613      631.0576837741303
0.007582232167524012      630.0532488551611
0.007811679667266285      629.0700992850167
0.008041575479707366      628.1082350636973
0.008271887219609135      627.1337589075849
0.008501747728772392      626.1947675880849
0.008731337046705121      625.2912611051967
0.008960835851156599      624.4232394589209
0.009190425033567954      623.5907026492573
0.009420285272008154      622.7936506762057
0.009650596606620833      622.0320835397664
0.009881512912836019      621.2934890574411
0.010111974573021956      620.6032526215038
0.010342163040896366      619.9613742319544
0.010572260416492441      619.3678538887931
0.010802449016030204      618.82269159202
0.011032910939230619      618.3258873416345
0.011263827639190652      617.8774411376372
0.011494048967061755      617.4495953755344
0.011723820083820682      617.0946526477841
0.011953320682717213      616.812612954386
0.012182731092678062      616.6034762953407
0.012412231855226382      616.4672426706479
0.012642003298903411      616.4039120803074
0.012872225116192546      616.4134845243195
0.013102446994778118      616.2856982751166
0.013332218499393473      616.250192281831
0.01356171932266464       616.3069665444627
0.013791129793276359      616.4560210630116
0.01402063045289555       616.697355837478
0.014250401630592404      617.0309708678614
0.014480623019759359      617.4568661541622
0.014711539835704642      617.7233430090882
0.014942001874208778      618.0689874739718
0.015172190588640395      618.4937995488128
0.01540228807899374       618.9977792336115
0.015632476661762654      619.580926528368
0.015862938437253588      620.2432414330817
0.01609385485945594       620.9847239477532
0.016324115336228646      621.6443590619978
0.016553925013622208      622.3428271664832
0.016783463813500554      623.0801282612093
0.017012912294953733      623.8562623461762
0.01724245123020976       624.6712294213842
0.01747226117803945       625.5250294868326
0.017702522059672054      626.4176625425221
0.017932276794613372      627.3065009333941
0.018161584037218948      628.2216487609135
0.018390622397267263      629.16310602508
0.018619571113827754      630.1308727258935
0.018848609636427344      631.1249488633543
0.019077917203754128      632.1453344374622
0.019307672424828403      633.1920294482173
0.019537568573699274      634.1382017563857
0.01976701624968263       635.1009814427584
0.019996194388245302      636.0803685073356
0.020225282556443316      637.0763629501175
0.020454460532815345      638.0889647711042
0.02068390788479834       639.1181739702951
0.020913803548616574      640.1639905476908
0.02114411498977932       640.9935246028409
0.021373975201947604      641.8374170936188
0.02160356422393484       642.6956680200248
0.02183306273279162       643.5682773820588
0.02206265161925901       644.455245179721
0.02229251156070728       645.3565714130109
0.02252282259658549       646.272256081929
0.022753738766914562      646.8570849429045
0.022984200292012823      647.4453550891311
0.023214388625279938      648.0370665206088
0.023444485866429166      648.6322192373375
0.023674674331359946      649.2308132393175
0.023905136119473275      649.8328485265483
0.024136052683548088      650.4383250990303
0.024366274021741702      650.6416101945528
0.024596045148762867      650.8473110963822
0.024825545757885373      651.0554278045181
0.02505495617806012       651.2659603189607
0.02528445695083446       651.4789086397103
0.025514228404773787      651.6942727667663
0.025744450232385536      651.9120527001293
0.025974672267095825      651.7841310365392
0.026204443926923768      651.6342271337838
0.02643394490485871       651.462340991863
0.02666335552995085       651.2684726107768
0.026892856344233315      651.0526219905258
0.02712262767714175       650.8147891311091
0.02735284922243193       650.5549740325273
0.027583766528201624      649.9135261348979
0.027814229053652367      649.2633490238658
0.028044418253299775      648.6044426994307
0.02827451622829193       647.9368071615932
0.028504705296278778      647.2604424103531
0.028735167558720572      646.57534844571
0.028966084470753738      645.8815252676644
0.029196345605491433      645.0337721890518
0.02942615593701711       644.1566458011637
0.02965569538872289       643.2501461039997
0.029885144521236064      642.31427309756
0.030114684108324883      641.3490267818449
0.030344494710297387      640.3544071568539
0.030574756249911007      639.3304142225874
0.030804511377321087      638.2118416249897
0.031033819010118435      637.0860537973612
0.031262857758987544      635.9530507397013
0.03149180686390927       634.8128324520109
0.031720845775323685      633.6653989342897
0.031950153732830305      632.510750186537
0.032179909346355486      631.3488862087538
0.0324098051544111        630.1952609927537
0.032639252491552244      629.0503673509538
0.03286843029245836       627.9142052833541
0.0330975181233935        626.786774789955
0.03332669576210278       625.6680758707562
0.03355614277523119       624.5581085257576
0.033786038098215655      623.4568727549595
0.034016348759356954      622.4019369243381
0.03424620819605658       621.3813456309902
0.034475796445315066      620.3950988749156
0.03470529418235937       619.4431966561147
0.03493488229610333       618.5256389745874
0.035164741462093585      617.6424258303333
0.03539505171796626       616.7935572233529
0.035625967353597694      616.0044432653066
0.03585642834714083       615.2702596007791
0.036086616150743635      614.5910062297705
0.03631671286286018       613.9666831522808
0.03654690079812825       613.3972903683102
0.036777362054689705      612.8828278778582
0.03700827808407173       612.4232956809252
0.03723849938140827       612.0143441326203
0.03746827046781093       611.6848163741756
0.03769777103645843       611.4347124055913
0.03792718141620601       611.2640322268672
0.0381566821485052        611.1727758380038
0.03838645356182577       611.1609432390002
0.03861667534858004       611.2285344298571
0.038846895274787324      611.2059005596944
0.039076664838430766      611.2810740102077
0.03930616372759302       611.4540547813966
0.03953557226638858       611.7248428732613
0.039765070991905134      612.0934382858021
0.039994840228642616      612.5598410190182
0.040225059665450036      613.1240510729103
0.04045597761776665       613.5807836632667
0.04068644078597457       614.1183666520845
0.04091663062609736       614.7368000393634
0.041146729240799984      615.4360838251033
0.04137691894925231       616.2162180093048
0.04160738185443156       617.0772025919671
0.04183829941298208       618.0190375730908
0.04206856149768976       618.9098389591397
0.04229837277362926       619.837182296188
0.04252791316640542       620.8010675842354
0.04275736323887129       621.8014948232822
0.04298690376702529       622.8384640133285
0.04321671531340127       623.9119751543736
0.04344697780296935       625.0220282464184
0.043676731016186174      626.1845207702387
0.04390603674591497       627.3568074842332
0.04413507359840861       628.5388883884016
0.04436402080919017       629.7307634827441
0.044593057824233256      630.9324327672609
0.04482236387867965       632.1438962419516
0.045052117578024006      633.3651539068164
0.045282012653644836      634.5872820299134
0.045511459262636354      635.795723421615
0.04574063633797325       636.9904780819211
0.04596972344420469       638.171546010832
0.046198900357357554      639.3389272083477
0.046428346642361965      640.4926216744677
0.04665824123294997       641.6326294091925
0.04688855484177433       642.682841536853
0.04711841720894409       643.7133853513672
0.04734800837831597       644.7242608527347
0.04757750903201372       645.715468040956
0.047807100065861544      646.6870069160314
0.04803696216230292       647.6388774779598
0.04826727536583021       648.5710797267421
0.048498193048686675      649.2918706437054
0.048728656077441146      649.990700531322
0.04895884590902903       650.6675693895917
0.04918894464672031       651.3224772185149
0.04941913460997818       651.9554240180918
0.04964959790176041       652.5664097883216
0.04988051597838159       653.155434529205
0.05011073543954296       653.4141983550459
0.0503405047004922        653.6639333625798
0.05057000345013497       653.9046395518069
0.05079941201302823       654.1363169227272
0.05102891092631677       654.3589654753407
0.05125868051417213       654.5725852096471
0.051488900464733596      654.7771761256467
