% Model:              brazing.mph
% Version:            COMSOL 5.3.0.223
% Date:               Oct 20 2018, 01:45
% Dimension:          1
% Nodes:              193
% Expressions:        1
% Description:        Line graph
% x                       Height
0                         594.2722601244162
1.6028433640637486E-4     594.3511913632642
3.201839556876346E-4      594.4229782854671
4.7982673004648776E-4     594.4876208910249
6.393411493738095E-4      594.5451191799374
7.988560137323205E-4      594.5954731522047
9.58500122107595E-4       594.638682807827
0.0011184019611720658     594.6747481468038
0.0012786893978073315     594.7036691691357
0.0014692881782178572     594.7267231645616
0.0016592398034323465     594.7337975999777
0.0018487589083489172     594.724892475384
0.00203806159906999       594.7000077907804
0.0022273647228667317     594.6591435461669
0.0024168851255237504     594.6022997415437
0.002606838908709185      594.5294763769105
0.0027974407000143733     594.4406734522674
0.003000214284638094      594.3229404220777
0.0032022105766743216     594.1905968876011
0.003403687017647933      594.0436428488382
0.0036049030444305387     593.8820783057886
0.0038061191011872996     593.7059032584524
0.004007595631967136      593.5151177068296
0.00420959207329518       593.3097216509202
0.00441236586612622       593.0897150907242
0.004615139632985625      592.8418686438997
0.004817136048636202      592.5906944253147
0.005018612553936322      592.3361924349692
0.005219828585313435      592.0783626728631
0.005421044586718146      591.8172051389965
0.0056225210022172924     591.5527198333693
0.005824517268584787      591.2849067559816
0.006027290827249049      591.0137659068334
0.006217890949519272      590.7317110551323
0.006407844130704021      590.4669652452877
0.0065973647866391935     590.2195284772993
0.00678666880286996       589.9894007511673
0.006975972806121895      589.7765820668917
0.007165493423165078      589.5810724244724
0.007355446539677438      589.4028718239095
0.007546046571713631      589.2419802652031
0.00770633524869351       589.121175186067
0.007866237248851195      589.017074124837
0.008025880956992212      588.9296770815126
0.008185395381580456      588.8589840560942
0.008344909844757132      588.8049950485815
0.008504553668569658      588.7677100589747
0.008664455861201733      588.7471290872737
0.008824744806995652      588.7432521334786
0.008985029143401957      588.7573115347195
0.009144928762683142      588.7920776486517
0.009304571537041926      588.8475504752752
0.009464085956369179      588.9237300145901
0.00962360082072762       589.0206162665963
0.009783244929102828      589.1382092312937
0.009943146768167231      589.2765089086824
0.010103434204802428      589.4355152987625
0.010294032985212885      589.6175492060617
0.010483984610427306      589.8183192463088
0.01067350371534381       590.0378254195036
0.010862806406064813      590.2760677256464
0.011052109529861487      590.533046164737
0.011241629932518437      590.8087607367754
0.011431583715703804      591.1032114417618
0.011622185507008923      591.4163982796961
0.011824959091632737      591.725735588921
0.012026955383669057      592.0280577746558
0.012228431824642762      592.3233648369007
0.01242964785142546       592.6116567756555
0.012630863908182311      592.8929335909204
0.012832340438962243      593.1671952826953
0.01303433688029038       593.43444185098
0.013237110673121513      593.6946732957748
0.013439884439981065      593.931394255064
0.013641880855631786      594.1495442631494
0.013843357360932049      594.3491233200309
0.014044573392309304      594.5301314257085
0.014245789393714157      594.6925685801823
0.014447265809213447      594.836434783452
0.014649262075581083      594.9617300355178
0.01485203563424549       595.0684543363798
0.015042635756515686      595.1561387640418
0.015232588937700405      595.2279140020262
0.015422109593635547      595.2837800503333
0.015611413609866287      595.3237369089628
0.015800717613118194      595.3477845779149
0.01599023823016135       595.3559230571894
0.01618019134667368       595.3481523467865
0.016370791378709844      595.3244724467061
0.016531080055689654      595.2796355803889
0.01669098205584727       595.231246092797
0.016850625763988217      595.1793039839301
0.017010140188576394      595.1238092537885
0.017169654651752998      595.0647619023721
0.017329298475565455      595.0021619296807
0.017489200668197463      594.9360093357146
0.01764948961399131       594.8663041204736
0.01780977395039525       594.7677016626943
0.017969673569674088      594.6578305341549
0.018129316344030533      594.5366907348551
0.01828883076335545       594.4042822647951
0.01844834562771156       594.260605123975
0.01860798973608443       594.1056593123946
0.018767891575146484      593.9394448300541
0.018928179011779317      593.7619616769532
0.019118777792188433      593.4942552176825
0.019308729417401523      593.2054355345622
0.019498248522316707      592.8955026275921
0.019687551213036395      592.5644564967724
0.019876854336831753      592.2122971421031
0.02006637473948738       591.8390245635842
0.020256328522671414      591.4446387612156
0.020446930313975188      591.0291397349974
0.02064970389860279       590.532337138474
0.02085170019064286       590.0234146801128
0.02105317663162028       589.5023723599139
0.02125439265840668       588.9692101778774
0.021455608715167235      588.4239281340031
0.02165708524595088       587.866526228291
0.021859081687282764      587.2970044607413
0.02206185548011769       586.7153628313538
0.022264629246980954      586.1370209057064
0.022466625662635346      585.5703563058225
0.022668102167939252      585.0153690317021
0.022869318199320136      584.472059083345
0.023070534200728618      583.9404264607514
0.023272010616231548      583.4204711639213
0.023474006882602858      582.9121931928546
0.02367678044127098       582.4155925475515
0.02386738056353977       581.9368673911378
0.024057333744723106      581.4909608595741
0.02424685440065687       581.0778729528602
0.024436158416886237      580.6976036709963
0.02462546242013677       580.3501530139823
0.024814983037178547      580.0355209818182
0.025004936153689494      579.753707574504
0.025195536185724256      579.5047127920396
0.0253558248627017        579.2902972650827
0.025515726862856965      579.1039981995183
0.025675370570995573      578.9458155953464
0.02583488499558142       578.8157494525673
0.02599439945875569       578.7137997711807
0.02615404328256581       578.6399665511867
0.026313945475195465      578.5942497925852
0.026474234420986946      578.5766494953764
0.026634518757392422      578.5814083465589
0.02679441837667279       578.6110319125025
0.026954061151030752      578.6655201932073
0.02711357557035719       578.7448731886732
0.027273090434714816      578.8490908989003
0.027432734543089202      578.9781733238883
0.027592636382152785      579.1321204636375
0.02775292381878715       579.3109323181478
0.02794352259919713       579.5327936456293
0.02813347422441108       579.7863551100273
0.028322993329327112      580.0716167113419
0.028512296020047647      580.3885784495731
0.02870159914384385       580.7372403247208
0.028891119546500334      581.1176023367854
0.02908107332968523       581.5296644857663
0.029271675120989875      581.9734267716639
0.02947444870561504       582.460685171733
0.029676444997652693      582.959021147288
0.02987792143862772       583.4684346983296
0.030079137465411736      583.9889258248571
0.030280353522169904      584.520494526871
0.030481830052951155      585.063140804371
0.030683826494280624      585.6168646573572
0.030886600287113104      586.1816660858296
0.03108937405397396       586.7364906244751
0.03129137046962597       587.2853569234967
0.03149284697492751       587.8282649828941
0.03169406300630604       588.3652148026675
0.03189527900771217       588.896206382817
0.03209675542321274       589.4212397233424
0.03229875168958166       589.9403148242437
0.03250152524824737       590.4534316855211
0.03269212537051706       590.8690014030254
0.03288207855170127       591.2617567952707
0.033071599207635916      591.6316978622568
0.033260903223866156      591.9788246039838
0.033450207227117564      592.3031370204516
0.033639727844160215      592.6046351116603
0.03382968096067204       592.8833188776098
0.034020280992707694      593.1391883183002
0.034180569669686675      593.3225680763619
0.03434047166984347       593.4940204680529
0.0345001153779836        593.6535454933735
0.03465962980257096       593.8011431523232
0.03481914426574675       593.9368134449024
0.034978788089558385      594.0605563711109
0.03513869028218957       594.1723719309489
0.035298979227982585      594.2722601244162
