% Model:              brazing.mph
% Version:            COMSOL 5.3.0.223
% Date:               Oct 20 2018, 01:06
% Dimension:          1
% Nodes:              193
% Expressions:        1
% Description:        Line graph
% x                       Height
0                         585.8649109491215
1.6028433640637486E-4     585.9516993190853
3.201839556876346E-4      586.0308368976577
4.7982673004648776E-4     586.1023236848382
6.393411493738095E-4      586.1661596806272
7.988560137323205E-4      586.2223448850245
9.58500122107595E-4       586.2708792980303
0.0011184019611720658     586.3117629196445
0.0012786893978073315     586.344995749867
0.0014692881782178572     586.373037772788
0.0016592398034323465     586.3846782384683
0.0018487589083489172     586.3799171469076
0.00203806159906999       586.358754498106
0.0022273647228667317     586.3211902920636
0.0024168851255237504     586.2672245287803
0.002606838908709185      586.1968572082561
0.0027974407000143733     586.1100883304911
0.003000214284638094      585.9899722766522
0.0032022105766743216     585.8547770544641
0.003403687017647933      585.7045026639271
0.0036049030444305387     585.5391491050409
0.0038061191011872996     585.3587163778056
0.004007595631967136      585.1632044822213
0.00420959207329518       584.9526134182878
0.00441236586612622       584.7269431860052
0.004615139632985625      584.4723898153964
0.004817136048636202      584.2143862693871
0.005018612553936322      583.9529325479771
0.005219828585313435      583.6880286511665
0.005421044586718146      583.4196745789553
0.0056225210022172924     583.1478703313434
0.005824517268584787      582.872615908331
0.006027290827249049      582.5939113099179
0.006217890949519272      582.3026792651175
0.006407844130704021      582.0294407788894
0.0065973647866391935     581.7741958512335
0.00678666880286996       581.5369444821498
0.006975972806121895      581.3176866716384
0.007165493423165078      581.1164224196993
0.007355446539677438      580.9331517263325
0.007546046571713631      580.767874591538
0.00770633524869351       580.6439967221396
0.007866237248851195      580.5374275006478
0.008025880956992212      580.4481669270627
0.008185395381580456      580.3762150013843
0.008344909844757132      580.3215717236124
0.008504553668569658      580.2842370937472
0.008664455861201733      580.2642111117885
0.008824744806995652      580.2614937777365
0.008985029143401957      580.2771157788893
0.009144928762683142      580.3142965642761
0.009304571537041926      580.373036133897
0.009464085956369179      580.4533344877518
0.00962360082072762       580.5551916258406
0.009783244929102828      580.6786075481637
0.009943146768167231      580.8235822547205
0.010103434204802428      580.9901157455114
0.010294032985212885      581.1807977740098
0.010483984610427306      581.39082698046
0.01067350371534381       581.6202033648615
0.010862806406064813      581.8689269272147
0.011052109529861487      582.1369976675194
0.011241629932518437      582.4244155857758
0.011431583715703804      582.7311806819837
0.011622185507008923      583.0572929561431
0.011824959091632737      583.3784908405496
0.012026955383669057      583.6922878296003
0.012228431824642762      583.9986839232957
0.01242964785142546       584.2976791216355
0.012630863908182311      584.5892734246196
0.012832340438962243      584.8734668322483
0.01303433688029038       585.1502593445211
0.013237110673121513      585.4196509614386
0.013439884439981065      585.6643891308306
0.013641880855631786      585.889737056052
0.013843357360932049      586.0956947371028
0.014044573392309304      586.2822621739829
0.014245789393714157      586.4494393666923
0.014447265809213447      586.5972263152314
0.014649262075581083      586.7256230195997
0.01485203563424549       586.8346294797974
0.015042635756515686      586.922031008294
0.015232588937700405      586.9929305993824
0.015422109593635547      587.0473282530625
0.015611413609866287      587.0852239693343
0.015800717613118194      587.1066177481978
0.01599023823016135       587.1115095896533
0.01618019134667368       587.0998994937004
0.016370791378709844      587.0717874603392
0.016531080055689654      587.0222872714312
0.01669098205584727       586.9687116352148
0.016850625763988217      586.9110605516898
0.017010140188576394      586.8493340208566
0.017169654651752998      586.783532042715
0.017329298475565455      586.7136546172649
0.017489200668197463      586.6397017445064
0.01764948961399131       586.5616734244395
0.01780977395039525       586.4549952627127
0.017969673569674088      586.3363963363432
0.018129316344030533      586.205876645331
0.01828883076335545       586.0634361896759
0.01844834562771156       585.9090749693783
0.01860798973608443       585.7427929844376
0.018767891575146484      585.5645902348544
0.018928179011779317      585.3744667206284
0.019118777792188433      585.0910867799802
0.019308729417401523      584.7857974498838
0.019498248522316707      584.4585987303396
0.019687551213036395      584.1094906213476
0.019876854336831753      583.7384731229075
0.02006637473948738       583.3455462350196
0.020256328522671414      582.9307099576838
0.020446930313975188      582.4939642909001
0.02064970389860279       581.9699040445079
0.02085170019064286       581.4331756610289
0.02105317663162028       580.8837791404634
0.02125439265840668       580.3217144828111
0.021455608715167235      579.7469816880722
0.02165708524595088       579.1595807562466
0.021859081687282764      578.5595116873342
0.02206185548011769       577.9467744813352
0.022264629246980954      577.3364990681044
0.022466625662635346      576.7385684900295
0.022668102167939252      576.1529827471102
0.022869318199320136      575.5797418393465
0.023070534200728618      575.0188457667385
0.023272010616231548      574.4702945292863
0.023474006882602858      573.9340881269898
0.02367678044127098       573.4102265598489
0.02386738056353977       572.9048536929239
0.024057333744723106      572.433996261587
0.02424685440065687       571.9976542658383
0.024436158416886237      571.5958277056775
0.02462546242013677       571.2285165811048
0.024814983037178547      570.89572089212
0.025004936153689494      570.5974406387236
0.025195536185724256      570.333675820915
0.0253558248627017        570.1066677926045
0.025515726862856965      569.9092608974053
0.025675370570995573      569.7414551353169
0.02583488499558142       569.6032505063397
0.02599439945875569       569.4946470104735
0.02615404328256581       569.4156446477185
0.026313945475195465      569.3662434180744
0.026474234420986946      569.3464433215414
0.026634518757392422      569.3502008623963
0.02679441837667279       569.3801277636429
0.026954061151030752      569.4362240252814
0.02711357557035719       569.5184896473118
0.027273090434714816      569.6269246297339
0.027432734543089202      569.7615289725478
0.027592636382152785      569.9223026757537
0.02775292381878715       570.1092457393513
0.02794352259919713       570.3413793724844
0.02813347422441108       570.6068845264293
0.028322993329327112      570.9057612011858
0.028512296020047647      571.2380093967541
0.02870159914384385       571.6036291131343
0.028891119546500334      572.0026203503261
0.02908107332968523       572.4349831083298
0.029271675120989875      572.9007173871452
0.02947444870561504       573.4112976274633
0.029676444997652693      573.9337863639344
0.02987792143862772       574.4681835965582
0.030079137465411736      575.0144893253351
0.030280353522169904      575.572703550265
0.030481830052951155      576.1428262713479
0.030683826494280624      576.7248574885836
0.030886600287113104      577.3187972019723
0.03108937405397396       577.902140520324
0.03129137046962597       578.4796716025592
0.03149284697492751       579.051390448678
0.03169406300630604       579.6172970586804
0.03189527900771217       580.1773914325663
0.03209675542321274       580.7316735703358
0.03229875168958166       581.2801434719888
0.03250152524824737       581.8228011375254
0.03269212537051706       582.2583541071766
0.03288207855170127       582.670545186258
0.033071599207635916      583.0593743747695
0.033260903223866156      583.4248416727113
0.033450207227117564      583.7669470800832
0.033639727844160215      584.0856905968853
0.03382968096067204       584.3810722231175
0.034020280992707694      584.6530919587799
0.034180569669686675      584.8484827086716
0.03434047166984347       585.0313267796779
0.0345001153779836        585.2016241717988
0.03465962980257096       585.3593748850342
0.03481914426574675       585.5045789193841
0.034978788089558385      585.6372362748488
0.03513869028218957       585.7573469514278
0.035298979227982585      585.8649109491215
