% Model:              brazing.mph
% Version:            COMSOL 5.3.0.223
% Date:               Oct 20 2018, 02:35
% Dimension:          1
% Nodes:              193
% Expressions:        1
% Description:        Line graph
% x                       Height
0                         608.2262542145612
1.6028433640637486E-4     608.3056627269415
3.201839556876346E-4      608.3781998704195
4.7982673004648776E-4     608.4438656449954
6.393411493738095E-4      608.5026600506689
7.988560137323205E-4      608.5545830874402
9.58500122107595E-4       608.5996347553092
0.0011184019611720658     608.637815054276
0.0012786893978073315     608.6691239843404
0.0014692881782178572     608.6945277156602
0.0016592398034323465     608.7036912606911
0.0018487589083489172     608.6966146194331
0.00203806159906999       608.6732977918863
0.0022273647228667317     608.6337407780505
0.0024168851255237504     608.5779435779259
0.002606838908709185      608.5059061915123
0.0027974407000143733     608.4176286188099
0.003000214284638094      608.3006927269555
0.0032022105766743216     608.1682708587165
0.003403687017647933      608.0203630140928
0.0036049030444305387     607.8569691930845
0.0038061191011872996     607.6780893956916
0.004007595631967136      607.4837236219139
0.00420959207329518       607.2738718717516
0.00441236586612622       607.0485341452045
0.004615139632985625      606.7912532324431
0.004817136048636202      606.5306719820751
0.005018612553936322      606.2667903941003
0.005219828585313435      605.9996084685191
0.005421044586718146      605.7291262053313
0.0056225210022172924     605.4553436045368
0.005824517268584787      605.1782606661357
0.006027290827249049      604.897877390128
0.006217890949519272      604.6052953392551
0.006407844130704021      604.3305847486495
0.0065973647866391935     604.073745618311
0.00678666880286996       603.8347779482399
0.006975972806121895      603.613681738436
0.007165493423165078      603.4104569888996
0.007355446539677438      603.2251036996302
0.007546046571713631      603.0576218706282
0.00770633524869351       602.9322411262431
0.007866237248851195      602.8243469274404
0.008025880956992212      602.73393927422
0.008185395381580456      602.661018166582
0.008344909844757132      602.6055836045264
0.008504553668569658      602.5676355880531
0.008664455861201733      602.5471741171622
0.008824744806995652      602.5441991918536
0.008985029143401957      602.5603070473571
0.009144928762683142      602.597758903342
0.009304571537041926      602.6565547598085
0.009464085956369179      602.7366946167564
0.00962360082072762       602.8381784741857
0.009783244929102828      602.9610063320966
0.009943146768167231      603.105178190489
0.010103434204802428      603.270694049363
0.010294032985212885      603.4622052430291
0.010483984610427306      603.6730295374609
0.01067350371534381       603.9031669326585
0.010862806406064813      604.1526174286216
0.011052109529861487      604.4213810253505
0.011241629932518437      604.709457722845
0.011431583715703804      605.0168475211051
0.011622185507008923      605.3435504201309
0.011824959091632737      605.663568356459
0.012026955383669057      605.9764822367798
0.012228431824642762      606.2822920610934
0.01242964785142546       606.5809978293995
0.012630863908182311      606.8725995416984
0.012832340438962243      607.1570971979902
0.01303433688029038       607.4344907982745
0.013237110673121513      607.7047803425517
0.013439884439981065      607.9454533847795
0.013641880855631786      608.1670121170206
0.013843357360932049      608.369456539275
0.014044573392309304      608.5527866515426
0.014245789393714157      608.7170024538236
0.014447265809213447      608.8621039461178
0.014649262075581083      608.9880911284254
0.01485203563424549       609.0949640007461
0.015042635756515686      609.1823791028686
0.015232588937700405      609.2536302953189
0.015422109593635547      609.3087175780973
0.015611413609866287      609.3476409512036
0.015800717613118194      609.370400414638
0.01599023823016135       609.3769959684003
0.01618019134667368       609.3674276124906
0.016370791378709844      609.3416953469089
0.016531080055689654      609.2939195927013
0.01669098205584727       609.2430105247871
0.016850625763988217      609.1889681431664
0.017010140188576394      609.1317924478393
0.017169654651752998      609.0714834388057
0.017329298475565455      609.0080411160658
0.017489200668197463      608.9414654796193
0.01764948961399131       608.8717565294664
0.01780977395039525       608.7710359758441
0.017969673569674088      608.6588589643385
0.018129316344030533      608.5352254949496
0.01828883076335545       608.4001355676775
0.01844834562771156       608.2535891825221
0.01860798973608443       608.0955863394835
0.018767891575146484      607.9261270385616
0.018928179011779317      607.7452112797565
0.019118777792188433      607.4723932784372
0.019308729417401523      607.1778387886817
0.019498248522316707      606.8615478104904
0.019687551213036395      606.5235203438631
0.019876854336831753      606.1637563887998
0.02006637473948738       605.7822559453006
0.020256328522671414      605.3790190133655
0.020446930313975188      604.9540455929944
0.02064970389860279       604.438365134962
0.02085170019064286       603.9102445449714
0.02105317663162028       603.3696838230226
0.02125439265840668       602.8166829691153
0.021455608715167235      602.2512419832497
0.02165708524595088       601.6733608654258
0.021859081687282764      601.0830396156437
0.02206185548011769       600.4802782339033
0.022264629246980954      599.875603593464
0.022466625662635346      599.2833384713068
0.022668102167939252      598.7034828674317
0.022869318199320136      598.1360367818386
0.023070534200728618      597.5810002145274
0.023272010616231548      597.0383731654985
0.023474006882602858      596.5081556347515
0.02367678044127098       595.9903476222864
0.02386738056353977       595.4899134528913
0.024057333744723106      595.0236025070944
0.02424685440065687       594.5914147848958
0.024436158416886237      594.1933502862956
0.02462546242013677       593.8294090112937
0.024814983037178547      593.4995909598902
0.025004936153689494      593.2038961320849
0.025195536185724256      592.942324527878
0.0253558248627017        592.7184856584071
0.025515726862856965      592.5237993195208
0.025675370570995573      592.3582655112187
0.02583488499558142       592.2218842335012
0.02599439945875569       592.1146554863681
0.02615404328256581       592.0365792698194
0.026313945475195465      591.9876555838551
0.026474234420986946      591.9678844284754
0.026634518757392422      591.9717669565845
0.02679441837667279       592.0015499456234
0.026954061151030752      592.057233395592
0.02711357557035719       592.1388173064904
0.027273090434714816      592.2463016783186
0.027432734543089202      592.3796865110763
0.027592636382152785      592.538971804764
0.02775292381878715       592.7241575593813
0.02794352259919713       592.9555079163914
0.02813347422441108       593.2198972679354
0.028322993329327112      593.5173256140132
0.028512296020047647      593.8477929546248
0.02870159914384385       594.2112992897702
0.028891119546500334      594.6078446194493
0.02908107332968523       595.0374289436625
0.029271675120989875      595.5000522624093
0.02947444870561504       596.0059304115166
0.029676444997652693      596.5238617631389
0.02987792143862772       597.0538463172767
0.030079137465411736      597.5958840739296
0.030280353522169904      598.1499750330977
0.030481830052951155      598.7161191947811
0.030683826494280624      599.2943165589796
0.030886600287113104      599.8845671256934
0.03108937405397396       600.4617478271509
0.03129137046962597       601.0322649440582
0.03149284697492751       601.5961184764149
0.03169406300630604       602.1533084242211
0.03189527900771217       602.7038347874769
0.03209675542321274       603.2476975661823
0.03229875168958166       603.7848967603372
0.03250152524824737       604.3154323699417
0.03269212537051706       604.7442216100882
0.03288207855170127       605.149178668616
0.033071599207635916      605.5303035455248
0.033260903223866156      605.8875962408151
0.033450207227117564      606.2210567544867
0.033639727844160215      606.5306850865393
0.03382968096067204       606.8164812369733
0.034020280992707694      607.0784452057885
0.034180569669686675      607.2639065822669
0.03434047166984347       607.4373721729219
0.0345001153779836        607.5988419777535
0.03465962980257096       607.7483159967618
0.03481914426574675       607.8857942299467
0.034978788089558385      608.0112766773082
0.03513869028218957       608.1247633388464
0.035298979227982585      608.2262542145612
