% Model:              brazing.mph
% Version:            COMSOL 5.3.0.223
% Date:               Oct 20 2018, 03:15
% Dimension:          1
% Nodes:              193
% Expressions:        1
% Description:        Line graph
% x                       Height
0                         604.0031130244514
1.6028433640637486E-4     604.0868830243018
3.201839556876346E-4      604.1631828635631
4.7982673004648776E-4     604.2320125422349
6.393411493738095E-4      604.2933720603176
7.988560137323205E-4      604.347261417811
9.58500122107595E-4       604.3936806147149
0.0011184019611720658     604.4326296510296
0.0012786893978073315     604.4641085267551
0.0014692881782178572     604.4883259509731
0.0016592398034323465     604.4944572368493
0.0018487589083489172     604.4825023843832
0.00203806159906999       604.4524613935753
0.0022273647228667317     604.4043342644253
0.0024168851255237504     604.3381209969334
0.002606838908709185      604.2538215910995
0.0027974407000143733     604.1514360469235
0.003000214284638094      604.0227837376813
0.0032022105766743216     603.8775571111748
0.003403687017647933      603.7157561674046
0.0036049030444305387     603.5373809063703
0.0038061191011872996     603.3424313280722
0.004007595631967136      603.13090743251
0.00420959207329518       602.9028092196838
0.00441236586612622       602.6581366895937
0.004615139632985625      602.3792374649047
0.004817136048636202      602.0968825112814
0.005018612553936322      601.8110718287238
0.005219828585313435      601.5218054172319
0.005421044586718146      601.2290832768058
0.0056225210022172924     600.9329054074453
0.005824517268584787      600.6332718091505
0.006027290827249049      600.3301824819214
0.006217890949519272      600.0160475368474
0.006407844130704021      599.7213359043566
0.0065973647866391935     599.4460475844485
0.00678666880286996       599.1901825771236
0.006975972806121895      598.9537408823815
0.007165493423165078      598.7367225002223
0.007355446539677438      598.5391274306461
0.007546046571713631      598.3609556736528
0.00770633524869351       598.2282175007751
0.007866237248851195      598.114214441077
0.008025880956992212      598.0189464945586
0.008185395381580456      597.9424136612197
0.008344909844757132      597.8846159410604
0.008504553668569658      597.8455533340807
0.008664455861201733      597.8252258402807
0.008824744806995652      597.8236334596602
0.008985029143401957      597.8434493911271
0.009144928762683142      597.8861949360045
0.009304571537041926      597.9518700942924
0.009464085956369179      598.0404748659909
0.00962360082072762       598.1520092510998
0.009783244929102828      598.2864732496192
0.009943146768167231      598.443866861549
0.010103434204802428      598.6241900868895
0.010294032985212885      598.8323315397008
0.010483984610427306      599.061386688597
0.01067350371534381       599.311355533578
0.010862806406064813      599.5822380746438
0.011052109529861487      599.8740343117944
0.011241629932518437      600.1867442450297
0.011431583715703804      600.5203678743497
0.011622185507008923      600.8749051997547
0.011824959091632737      601.2259756225216
0.012026955383669057      601.5693449779252
0.012228431824642762      601.9050132659656
0.01242964785142546       602.2329804866426
0.012630863908182311      602.5532466399565
0.012832340438962243      602.865811725907
0.01303433688029038       603.1706757444941
0.013237110673121513      603.467838695718
0.013439884439981065      603.7348748530575
0.013641880855631786      603.9811748533632
0.013843357360932049      604.2067386966353
0.014044573392309304      604.4115663828736
0.014245789393714157      604.5956579120782
0.014447265809213447      604.7590132842491
0.014649262075581083      604.9016324993864
0.01485203563424549       605.0235155574899
0.015042635756515686      605.1263766786723
0.015232588937700405      605.2112140246184
0.015422109593635547      605.2780275953278
0.015611413609866287      605.3268173908008
0.015800717613118194      605.3575834110372
0.01599023823016135       605.3703256560373
0.01618019134667368       605.3650441258009
0.016370791378709844      605.3417388203279
0.016531080055689654      605.294098061437
0.01669098205584727       605.2429489326258
0.016850625763988217      605.1882914338943
0.017010140188576394      605.1301255652423
0.017169654651752998      605.0684513266701
0.017329298475565455      605.0032687181775
0.017489200668197463      604.9345777397648
0.01764948961399131       604.8623783914315
0.01780977395039525       604.7553489868496
0.017969673569674088      604.6357945604103
0.018129316344030533      604.5037151121137
0.01828883076335545       604.3591106419597
0.01844834562771156       604.2019811499483
0.01860798973608443       604.0323266360797
0.018767891575146484      603.8501471003536
0.018928179011779317      603.6554425427703
0.019118777792188433      603.3601582779013
0.019308729417401523      603.0410963925441
0.019498248522316707      602.6982568866988
0.019687551213036395      602.3316397603653
0.019876854336831753      601.9412450135436
0.02006637473948738       601.5270726462337
0.020256328522671414      601.0891226584355
0.020446930313975188      600.6273950501492
0.02064970389860279       600.0736995818718
0.02085170019064286       599.5066055880147
0.02105317663162028       598.926113068578
0.02125439265840668       598.3322220235618
0.021455608715167235      597.724932452966
0.02165708524595088       597.1042443567904
0.021859081687282764      596.4701577350353
0.02206185548011769       595.8226725877005
0.022264629246980954      595.175559965379
0.022466625662635346      594.5414289599477
0.022668102167939252      593.9202795714068
0.022869318199320136      593.3121117997562
0.023070534200728618      592.7169256449959
0.023272010616231548      592.1347211071259
0.023474006882602858      591.5654981861461
0.02367678044127098       591.0092568820567
0.02386738056353977       590.4736996243619
0.024057333744723106      589.9745466762482
0.02424685440065687       589.5117980377158
0.024436158416886237      589.0854537087645
0.02462546242013677       588.6955136893944
0.024814983037178547      588.3419779796053
0.025004936153689494      588.0248465793975
0.025195536185724256      587.7441194887707
0.0253558248627017        587.5036957492007
0.025515726862856965      587.2942797424733
0.025675370570995573      587.1158714685889
0.02583488499558142       586.9684709275473
0.02599439945875569       586.8520781193486
0.02615404328256581       586.7666930439925
0.026313945475195465      586.7123157014794
0.026474234420986946      586.688946091809
0.026634518757392422      586.6917733312802
0.02679441837667279       586.7220189295527
0.026954061151030752      586.7796828866265
0.02711357557035719       586.8647652025018
0.027273090434714816      586.9772658771783
0.027432734543089202      587.1171849106564
0.027592636382152785      587.2845223029358
0.02775292381878715       587.4792780540166
0.02794352259919713       587.7237229465616
0.02813347422441108       588.0035163224165
0.028322993329327112      588.3186581815818
0.028512296020047647      588.6691485240568
0.02870159914384385       589.054987349842
0.028891119546500334      589.4761746589372
0.02908107332968523       589.9327104513426
0.029271675120989875      590.424594727058
0.02947444870561504       590.9644388179167
0.029676444997652693      591.5168546074033
0.02987792143862772       592.0818420955178
0.030079137465411736      592.6594012822602
0.030280353522169904      593.2495321676305
0.030481830052951155      593.8522347516287
0.030683826494280624      594.4675090342548
0.030886600287113104      595.0953550155087
0.03108937405397396       595.709096633425
0.03129137046962597       596.3156372413932
0.03149284697492751       596.9149768394132
0.03169406300630604       597.507115427485
0.03189527900771217       598.0920530056087
0.03209675542321274       598.6697895737843
0.03229875168958166       599.2403251320117
0.03250152524824737       599.8036596802908
0.03269212537051706       600.2659537946337
0.03288207855170127       600.7021986881451
0.033071599207635916      601.1123943608251
0.033260903223866156      601.4965408126736
0.033450207227117564      601.8546380436908
0.033639727844160215      602.1866860538764
0.03382968096067204       602.4926848432307
0.034020280992707694      602.7726344117535
0.034180569669686675      602.9716798761226
0.03434047166984347       603.1578008725539
0.0345001153779836        603.3309974010476
0.03465962980257096       603.4912694616037
0.03481914426574675       603.6386170542221
0.034978788089558385      603.7730401789029
0.03513869028218957       603.8945388356459
0.035298979227982585      604.0031130244514
