% Model:              brazing.mph
% Version:            COMSOL 5.3.0.223
% Date:               Oct 20 2018, 02:00
% Dimension:          1
% Nodes:              193
% Expressions:        1
% Description:        Line graph
% x                       Height
0                         610.4794441108463
1.6028433640637486E-4     610.5581474757187
3.201839556876346E-4      610.6297453689753
4.7982673004648776E-4     610.6942377906162
6.393411493738095E-4      610.7516247406414
7.988560137323205E-4      610.8019062190509
9.58500122107595E-4       610.8450822258446
0.0011184019611720658     610.8811527610226
0.0012786893978073315     610.9101178245849
0.0014692881782178572     610.9329217050686
0.0016592398034323465     610.9394703230565
0.0018487589083489172     610.9297636785486
0.00203806159906999       610.9038017715451
0.0022273647228667317     610.8615846020457
0.0024168851255237504     610.8031121700507
0.002606838908709185      610.7283844755597
0.0027974407000143733     610.637401518573
0.003000214284638094      610.5180888898198
0.0032022105766743216     610.3838497828776
0.003403687017647933      610.2346841977466
0.0036049030444305387     610.0705921344265
0.0038061191011872996     609.8915735929177
0.004007595631967136      609.69762857322
0.00420959207329518       609.4887570753333
0.00441236586612622       609.2649590992578
0.004615139632985625      609.0121422199379
0.004817136048636202      608.7559609101321
0.005018612553936322      608.4964151698404
0.005219828585313435      608.2335049990627
0.005421044586718146      607.967230397799
0.0056225210022172924     607.6975913660493
0.005824517268584787      607.4245879038139
0.006027290827249049      607.1482200110923
0.006217890949519272      606.860780646473
0.006407844130704021      606.5909366883556
0.0065973647866391935     606.3386881367402
0.00678666880286996       606.1040349916268
0.006975972806121895      605.8869772530155
0.007165493423165078      605.687514920906
0.007355446539677438      605.5056479952985
0.007546046571713631      605.3413764761932
0.00770633524869351       605.2181591142582
0.007866237248851195      605.1119323249841
0.008025880956992212      605.0226961083706
0.008185395381580456      604.9504504644179
0.008344909844757132      604.8951953931261
0.008504553668569658      604.8569308944949
0.008664455861201733      604.8356569685245
0.008824744806995652      604.8313736152148
0.008985029143401957      604.845557108797
0.009144928762683142      604.8807612708285
0.009304571537041926      604.9369861013098
0.009464085956369179      605.0142316002406
0.00962360082072762       605.1124977676209
0.009783244929102828      605.2317846034507
0.009943146768167231      605.3720921077302
0.010103434204802428      605.5334202804592
0.010294032985212885      605.7183996316483
0.010483984610427306      605.9224542328097
0.01067350371534381       606.1455840839438
0.010862806406064813      606.3877891850503
0.011052109529861487      606.6490695361293
0.011241629932518437      606.9294251371807
0.011431583715703804      607.2288559882047
0.011622185507008923      607.5473620892011
0.011824959091632737      607.8616999180612
0.012026955383669057      608.1689528022416
0.012228431824642762      608.4691207417424
0.01242964785142546       608.7622037365635
0.012630863908182311      609.048201786705
0.012832340438962243      609.3271148921668
0.01303433688029038       609.5989430529489
0.013237110673121513      609.8636862690514
0.013439884439981065      610.1036200992235
0.013641880855631786      610.3247204530546
0.013843357360932049      610.5269873305448
0.014044573392309304      610.710420731694
0.014245789393714157      610.8750206565021
0.014447265809213447      611.0207871049693
0.014649262075581083      611.1477200770955
0.01485203563424549       611.2558195728807
0.015042635756515686      611.3451124189576
0.015232588937700405      611.4182840201624
0.015422109593635547      611.4753343764953
0.015611413609866287      611.516263487956
0.015800717613118194      611.5410713545449
0.01599023823016135       611.5497579762616
0.01618019134667368       611.5423233531064
0.016370791378709844      611.5187674850791
0.016531080055689654      611.4735337934368
0.01669098205584727       611.4248995366523
0.016850625763988217      611.3728647147254
0.017010140188576394      611.3174293276564
0.017169654651752998      611.2585933754452
0.017329298475565455      611.1963568580917
0.017489200668197463      611.1307197755959
0.01764948961399131       611.061682127958
0.01780977395039525       610.9626384823385
0.017969673569674088      610.852244720936
0.018129316344030533      610.7305008437505
0.01828883076335545       610.5974068507818
0.01844834562771156       610.45296274203
0.01860798973608443       610.297168517495
0.018767891575146484      610.130024177177
0.018928179011779317      609.9515297210759
0.019118777792188433      609.6812923486285
0.019308729417401523      609.3896279997425
0.019498248522316707      609.0765366744179
0.019687551213036395      608.7420183726546
0.019876854336831753      608.3860730944525
0.02006637473948738       608.0087008398119
0.020256328522671414      607.6099016087327
0.020446930313975188      607.1896754012148
0.02064970389860279       606.6863115913874
0.02085170019064286       606.1706973827414
0.02105317663162028       605.6428327752769
0.02125439265840668       605.1027177689939
0.021455608715167235      604.5503523638923
0.02165708524595088       603.9857365599722
0.021859081687282764      603.4088703572336
0.02206185548011769       602.8197537556764
0.022264629246980954      602.2332896691681
0.022466625662635346      601.6587068623523
0.022668102167939252      601.096005335229
0.022869318199320136      600.5451850877984
0.023070534200728618      600.0062461200603
0.023272010616231548      599.4791884320148
0.023474006882602858      598.9640120236618
0.02367678044127098       598.4607168950014
0.02386738056353977       597.9753791331495
0.024057333744723106      597.5233406439614
0.02424685440065687       597.104601427437
0.024436158416886237      596.7191614835765
0.02462546242013677       596.3670208123797
0.024814983037178547      596.0481794138467
0.025004936153689494      595.7626372879774
0.025195536185724256      595.510394434772
0.0253558248627017        595.2933732114699
0.025515726862856965      595.1048273132003
0.025675370570995573      594.9447567399633
0.02583488499558142       594.8131614917589
0.02599439945875569       594.7100415685871
0.02615404328256581       594.6353969704478
0.026313945475195465      594.589227697341
0.026474234420986946      594.5715337492668
0.026634518757392422      594.5767165133135
0.02679441837667279       594.607070038482
0.026954061151030752      594.6625943247722
0.02711357557035719       594.7432893721841
0.027273090434714816      594.8491551807178
0.027432734543089202      594.9801917503734
0.027592636382152785      595.1363990811506
0.02775292381878715       595.3177771730496
0.02794352259919713       595.5432429341628
0.02813347422441108       595.8008633771183
0.028322993329327112      596.0906385019161
0.028512296020047647      596.4125683085564
0.02870159914384385       596.766652797039
0.028891119546500334      597.1528919673641
0.02908107332968523       597.5712858195315
0.029271675120989875      598.0218343535412
0.02947444870561504       598.5164300857724
0.029676444997652693      599.0222769586305
0.02987792143862772       599.539374972116
0.030079137465411736      600.0677241262285
0.030280353522169904      600.6073244209682
0.030481830052951155      601.158175856335
0.030683826494280624      601.720278432329
0.030886600287113104      602.29363214895
0.03108937405397396       602.8562765722759
0.03129137046962597       603.4127265512565
0.03149284697492751       603.9629820858913
0.03169406300630604       604.5070431761809
0.03189527900771217       605.044909822125
0.03209675542321274       605.5765820237235
0.03229875168958166       606.1020597809766
0.03250152524824737       606.6213430938841
0.03269212537051706       607.0427701576612
0.03288207855170127       607.4408787664737
0.033071599207635916      607.815668920322
0.033260903223866156      608.167140619206
0.033450207227117564      608.4952938631255
0.033639727844160215      608.8001286520808
0.03382968096067204       609.0816449860716
0.034020280992707694      609.3398428650981
0.034180569669686675      609.5243365835986
0.03434047166984347       609.6968178555899
0.0345001153779836        609.8572866810721
0.03465962980257096       610.0057430600452
0.03481914426574675       610.1421869925092
0.034978788089558385      610.266618478464
0.03513869028218957       610.3790375179098
0.035298979227982585      610.4794441108463
