% Model:              brazing.mph
% Version:            COMSOL 5.3.0.223
% Date:               Oct 20 2018, 01:17
% Dimension:          1
% Nodes:              193
% Expressions:        1
% Description:        Line graph
% x                       Height
0                         602.5421027683346
1.6028433640637486E-4     602.6227563412514
3.201839556876346E-4      602.6960292201599
4.7982673004648776E-4     602.76192140506
6.393411493738095E-4      602.8204328959519
7.988560137323205E-4      602.8715636928354
9.58500122107595E-4       602.9153137957106
0.0011184019611720658     602.9516832045776
0.0012786893978073315     602.9806719194363
0.0014692881782178572     603.0026203768106
0.0016592398034323465     603.0071920748991
0.0018487589083489172     602.9943870137021
0.00203806159906999       602.9642051932191
0.0022273647228667317     602.9166466134506
0.0024168851255237504     602.851711274396
0.002606838908709185      602.769399176056
0.0027974407000143733     602.6697103184302
0.003000214284638094      602.5433050457926
0.0032022105766743216     602.4011902868341
0.003403687017647933      602.2433660415546
0.0036049030444305387     602.0698323099541
0.0038061191011872996     601.8805890920327
0.004007595631967136      601.6756363877902
0.00420959207329518       601.4549741972268
0.00441236586612622       601.2186025203423
0.004615139632985625      600.9510153135998
0.004817136048636202      600.6799715168321
0.005018612553936322      600.4054711300395
0.005219828585313435      600.1275141532216
0.005421044586718146      599.8461005863785
0.0056225210022172924     599.5612304295104
0.005824517268584787      599.2729036826172
0.006027290827249049      598.9811203456987
0.006217890949519272      598.6787776420693
0.006407844130704021      598.3950742209054
0.0065973647866391935     598.1300100822068
0.00678666880286996       597.8835852259738
0.006975972806121895      597.6557996522062
0.007165493423165078      597.4466533609041
0.007355446539677438      597.2561463520674
0.007546046571713631      597.0842786256961
0.00770633524869351       596.9558653059637
0.007866237248851195      596.8453325121662
0.008025880956992212      596.7526802443035
0.008185395381580456      596.6779085023757
0.008344909844757132      596.6210172863827
0.008504553668569658      596.5820065963246
0.008664455861201733      596.5608764322013
0.008824744806995652      596.5576267940129
0.008985029143401957      596.5744907823972
0.009144928762683142      596.6134523105377
0.009304571537041926      596.6745113784342
0.009464085956369179      596.7576679860867
0.00962360082072762       596.8629221334953
0.009783244929102828      596.9902738206599
0.009943146768167231      597.1397230475806
0.010103434204802428      597.3112698142573
0.010294032985212885      597.5080720421856
0.010483984610427306      597.7250201609627
0.01067350371534381       597.9621141705887
0.010862806406064813      598.2193540710638
0.011052109529861487      598.4967398623878
0.011241629932518437      598.7942715445607
0.011431583715703804      599.1119491175826
0.011622185507008923      599.4497725814535
0.011824959091632737      599.7849986329293
0.012026955383669057      600.1127465300485
0.012228431824642762      600.4330162728107
0.01242964785142546       600.7458078612165
0.012630863908182311      601.0511212952654
0.012832340438962243      601.3489565749575
0.01303433688029038       601.639313700293
0.013237110673121513      601.9221926712717
0.013439884439981065      602.1788749020656
0.013641880855631786      602.4156578100536
0.013843357360932049      602.6325413952359
0.014044573392309304      602.8295256576124
0.014245789393714157      603.0066105971831
0.014447265809213447      603.1637962139479
0.014649262075581083      603.301082507907
0.01485203563424549       603.4184694790603
0.015042635756515686      603.5172480331021
0.015232588937700405      603.5987849934323
0.015422109593635547      603.6630803600513
0.015611413609866287      603.7101341329587
0.015800717613118194      603.7399463121548
0.01599023823016135       603.7525168976391
0.01618019134667368       603.7478458894122
0.016370791378709844      603.7259332874738
0.016531080055689654      603.6808149216344
0.01669098205584727       603.6321908470503
0.016850625763988217      603.5800610637219
0.017010140188576394      603.5244255716491
0.017169654651752998      603.4652843708318
0.017329298475565455      603.4026374612699
0.017489200668197463      603.3364848429637
0.01764948961399131       603.266826515913
0.01780977395039525       603.1644325789786
0.017969673569674088      603.050032225857
0.018129316344030533      602.9236254565478
0.01828883076335545       602.7852122710516
0.01844834562771156       602.6347926693679
0.01860798973608443       602.4723666514969
0.018767891575146484      602.2979342174386
0.018928179011779317      602.1114953671931
0.019118777792188433      601.8277113046875
0.019308729417401523      601.5211251524971
0.019498248522316707      601.1917369106222
0.019687551213036395      600.8395465790626
0.019876854336831753      600.4645541578183
0.02006637473948738       600.0667596468892
0.020256328522671414      599.6461630462754
0.020446930313975188      599.202764355977
0.02064970389860279       598.674079445503
0.02085170019064286       598.1324797602118
0.02105317663162028       597.5779653001038
0.02125439265840668       597.0105360651787
0.021455608715167235      596.4301920554366
0.02165708524595088       595.8369332708776
0.021859081687282764      595.2307597115014
0.02206185548011769       594.6116713773083
0.022264629246980954      593.995696918162
0.022466625662635346      593.3920246192749
0.022668102167939252      592.8006544806468
0.022869318199320136      592.2215865022779
0.023070534200728618      591.654820684168
0.023272010616231548      591.1003570263174
0.023474006882602858      590.5581955287258
0.02367678044127098       590.0283361913935
0.02386738056353977       589.5183799783731
0.024057333744723106      589.0432942122767
0.02424685440065687       588.6030788931038
0.024436158416886237      588.1977340208548
0.02462546242013677       587.8272595955295
0.024814983037178547      587.491655617128
0.025004936153689494      587.1909220856502
0.025195536185724256      586.9250590010962
0.0253558248627017        586.6964694369234
0.025515726862856965      586.4976344917507
0.025675370570995573      586.328554165578
0.02583488499558142       586.1892284584055
0.02599439945875569       586.079657370233
0.02615404328256581       585.9998409010608
0.026313945475195465      585.9497790508885
0.026474234420986946      585.9294718197165
0.026634518757392422      585.9338418530205
0.02679441837667279       585.9644522753885
0.026954061151030752      586.02130308682
0.02711357557035719       586.1043942873154
0.027273090434714816      586.2137258768744
0.027432734543089202      586.3492978554972
0.027592636382152785      586.5111102231839
0.02775292381878715       586.6991629799342
0.02794352259919713       586.9339582597629
0.02813347422441108       587.202504306377
0.028322993329327112      587.504801119776
0.028512296020047647      587.8408486999602
0.02870159914384385       588.2106470469296
0.028891119546500334      588.6141961606841
0.02908107332968523       589.0514960412236
0.029271675120989875      589.5225466885483
0.02947444870561504       590.0405165688087
0.029676444997652693      590.5701617939959
0.02987792143862772       591.1114823641102
0.030079137465411736      591.6644782791512
0.030280353522169904      592.2291495391192
0.030481830052951155      592.8054961440142
0.030683826494280624      593.3935180938362
0.030886600287113104      593.9932153885851
0.03108937405397396       594.580959004943
0.03129137046962597       595.1620239771452
0.03149284697492751       595.7364103051917
0.03169406300630604       596.3041179890826
0.03189527900771217       596.8651470288178
0.03209675542321274       597.4194974243972
0.03229875168958166       597.9671691758209
0.03250152524824737       598.5081622830891
0.03269212537051706       598.9511881484971
0.03288207855170127       599.3693604295026
0.033071599207635916      599.7626791261054
0.033260903223866156      600.1311442383056
0.033450207227117564      600.4747557661033
0.033639727844160215      600.7935137094984
0.03382968096067204       601.0874180684908
0.034020280992707694      601.3564688430806
0.034180569669686675      601.548604678419
0.03434047166984347       601.7281886295626
0.0345001153779836        601.8952206965116
0.03465962980257096       602.0497008792657
0.03481914426574675       602.1916291778251
0.034978788089558385      602.3210055921897
0.03513869028218957       602.4378301223595
0.035298979227982585      602.5421027683346
