% Model:              brazing.mph
% Version:            COMSOL 5.3.0.223
% Date:               Oct 20 2018, 01:17
% Dimension:          1
% Nodes:              225
% Expressions:        1
% Description:        Line graph
% x                       Height
0                         644.3812809344178
2.3022181212578358E-4     644.2369095379157
4.5999325066962656E-4     644.0680636513347
6.894940081029028E-4      643.8747432746745
9.189044129547812E-4      643.6569484079351
0.001148405006736289      643.4146790511171
0.0013781761183620641     643.1479352042196
0.001608397441069865      642.8567168672432
0.001839314118928521      642.1601711718356
0.0020697760201574002     641.4693825349015
0.002299964597801726      640.7843509564409
0.0025300619515304015     640.1050764364539
0.0027602503975112853     639.4315589749409
0.0029907120357255193     638.7637985719011
0.003221628319839081      638.1017952273352
0.0034518885683530987     637.2223890538029
0.0036816980188178403     636.3346180143047
0.003911236592567028      635.4384821088403
0.004140684848157368      634.53398133741
0.004370223557282477      633.6211157000138
0.004600033278179856      632.6998851966514
0.004830293931548535      631.770289827323
0.005060048526376791      630.6568921911252
0.005289355629682316      629.5559311595351
0.005518393850920054      628.4674067325527
0.005747342428834         627.3913189101783
0.00597638081262499       626.3276676924119
0.006205688240655705      625.2764530792531
0.006435443321622868      624.2376750707022
0.006665339619110656      623.1198323074657
0.006894787442849326      622.0220374296684
0.007123965728649401      620.9442904373103
0.007353054043912613      619.8865913303911
0.007582232167524012      618.8489401089114
0.007811679667266285      617.8313367728704
0.008041575479707366      616.8337813222687
0.008271887219609135      615.8302364661131
0.008501747728772392      614.8618810182234
0.008731337046705121      613.9287149785996
0.008960835851156599      613.030738347242
0.009190425033567954      612.1679511241507
0.009420285272008154      611.340353309325
0.009650596606620833      610.5479449027656
0.009881512912836019      609.7836634368003
0.010111974573021956      609.0681099094433
0.010342163040896366      608.4012843206943
0.010572260416492441      607.7831866705537
0.010802449016030204      607.2138169590216
0.011032910939230619      606.6931751860975
0.011263827639190652      606.2212613517818
0.011494048967061755      605.7717864477793
0.011723820083820682      605.39794334988
0.011953320682717213      605.099732058084
0.012182731092678062      604.8771525723912
0.012412231855226382      604.7302048928019
0.012642003298903411      604.6588890193157
0.012872225116192546      604.6632049519328
0.013102446994778118      604.5118359784807
0.013332218499393473      604.457946882687
0.01356171932266464       604.5015376645516
0.013791129793276359      604.6426083240746
0.01402063045289555       604.8811588612564
0.014250401630592404      605.2171892760963
0.014480623019759359      605.6506995685947
0.014711539835704642      605.9056905125178
0.014942001874208778      606.2439468721019
0.015172190588640395      606.6654686473468
0.01540228807899374       607.1702558382527
0.015632476661762654      607.75830844482
0.015862938437253588      608.4296264670479
0.01609385485945594       609.184209904937
0.016324115336228646      609.8493491584674
0.016553925013622208      610.5537718128522
0.016783463813500554      611.2974778680915
0.017012912294953733      612.0804673241854
0.01724245123020976       612.902740181134
0.01747226117803945       613.7642964389368
0.017702522059672054      614.6651360975942
0.017932276794613372      615.5692956339195
0.018161584037218948      616.4992537046702
0.018390622397267263      617.4550103098462
0.018619571113827754      618.4365654494479
0.018848609636427344      619.4439191234752
0.019077917203754128      620.4770713319277
0.019307672424828403      621.5360220748058
0.019537568573699274      622.5022345875935
0.01976701624968263       623.48389245287
0.019996194388245302      624.4809956706349
0.020225282556443316      625.4935442408886
0.020454460532815345      626.5215381636311
0.02068390788479834       627.5649774388619
0.020913803548616574      628.6238620665815
0.02114411498977932       629.472759293497
0.021373975201947604      630.3350278906819
0.02160356422393484       631.2106678581358
0.02183306273279162       632.099679195859
0.02206265161925901       633.0020619038517
0.02229251156070728       633.9178159821131
0.02252282259658549       634.8469414306439
0.022753738766914562      635.4489992877585
0.022984200292012823      636.0533656669883
0.023214388625279938      636.6600405683332
0.023444485866429166      637.2690239917936
0.023674674331359946      637.8803159373692
0.023905136119473275      638.4939164050598
0.024136052683548088      639.109825394866
0.024366274021741702      639.3227057885414
0.024596045148762867      639.5391687789912
0.024825545757885373      639.7592143662152
0.02505495617806012       639.9828425502136
0.02528445695083446       640.2100533309866
0.025514228404773787      640.4408467085336
0.025744450232385536      640.6752226828552
0.025974672267095825      640.5363062257601
0.026204443926923768      640.3796140415653
0.02643394490485871       640.2051461302708
0.02666335552995085       640.0129024918765
0.026892856344233315      639.8028831263828
0.02712262767714175       639.575088033789
0.02735284922243193       639.3295172140956
0.027583766528201624      638.672642488209
0.027814229053652367      638.0102927343579
0.028044418253299775      637.3424679525422
0.02827451622829193       636.6691681427619
0.028504705296278778      635.9903933050174
0.028735167558720572      635.306143439308
0.028966084470753738      634.6164185456342
0.029196345605491433      633.7580765404346
0.02942615593701711       632.8697334749669
0.02965569538872289       631.9513893492309
0.029885144521236064      631.003044163227
0.030114684108324883      630.024697916955
0.030344494710297387      629.0163506104147
0.030574756249911007      627.9780022436065
0.030804511377321087      626.8501221581856
0.031033819010118435      625.7138018808073
0.031262857758987544      624.5690414114714
0.03149180686390927       623.4158407501781
0.031720845775323685      622.2541998969275
0.031950153732830305      621.0841188517193
0.032179909346355486      619.9055976145536
0.0324098051544111        618.7433963743217
0.032639252491552244      617.5887567441157
0.03286843029245836       616.4416787239351
0.0330975181233935        615.3021623137802
0.03332669576210278       614.170207513651
0.03355614277523119       613.0458143235471
0.033786038098215655      611.9289827434692
0.034016348759356954      610.865782811141
0.03424620819605658       609.8367798949731
0.034475796445315066      608.8419739949654
0.03470529418235937       607.881365111118
0.03493488229610333       606.9549532434313
0.035164741462093585      606.0627383919045
0.03539505171796626       605.2047205565383
0.035625967353597694      604.4119134288712
0.03585642834714083       603.6746000859649
0.036086616150743635      602.9927805278195
0.03631671286286018       602.3664547544346
0.03654690079812825       601.7956227658109
0.036777362054689705      601.2802845619477
0.03700827808407173       600.8204401428454
0.03723849938140827       600.4134654034981
0.03746827046781093       600.0883914361397
0.03769777103645843       599.8452182407699
0.03792718141620601       599.683945817389
0.0381566821485052        599.6045741659972
0.03838645356182577       599.6071032865939
0.03861667534858004       599.6915331791795
0.038846895274787324      599.671509352846
0.039076664838430766      599.7537010741994
0.03930616372759302       599.9381083432398
0.03953557226638858       600.2247311599672
0.039765070991905134      600.6135695243819
0.039994840228642616      601.1046234364832
0.040225059665450036      601.6978928962717
0.04045597761776665       602.1687161481694
0.04068644078597457       602.7236989866168
0.04091663062609736       603.3628414116134
0.041146729240799984      604.0861434231599
0.04137691894925231       604.893605021256
0.04160738185443156       605.7852262059014
0.04183829941298208       606.7610069770965
0.04206856149768976       607.6802194260158
0.04229837277362926       608.6359092019026
0.04252791316640542       609.6280763047563
0.04275736323887129       610.6567207345772
0.04298690376702529       611.7218424913658
0.04321671531340127       612.823441575121
0.04344697780296935       613.9615179858437
0.043676731016186174      615.157992417637
0.04390603674591497       616.3631040963137
0.04413507359840861       617.5768530218731
0.04436402080919017       618.799239194316
0.044593057824233256      620.030262613642
0.04482236387867965       621.2699232798509
0.045052117578024006      622.518221192943
0.045282012653644836      623.7744438427404
0.045511459262636354      625.0148855271137
0.04574063633797325       626.2395462460628
0.04596972344420469       627.4484259995877
0.046198900357357554      628.6415247876886
0.046428346642361965      629.8188426103651
0.04665824123294997       630.9803794676176
0.04688855484177433       632.0577329676139
0.04711841720894409       633.1133424328467
0.04734800837831597       634.1472078633155
0.04757750903201372       635.1593292590209
0.047807100065861544      636.1497066199628
0.04803696216230292       637.1183399461405
0.04826727536583021       638.0652292375548
0.048498193048686675      638.8041499490635
0.048728656077441146      639.5189080493885
0.04895884590902903       640.2095035385302
0.04918894464672031       640.8759364164882
0.04941913460997818       641.5182066832631
0.04964959790176041       642.1363143388543
0.04988051597838159       642.730259383262
0.05011073543954296       642.9928751223359
0.0503405047004922        643.2465723555831
0.05057000345013497       643.4913510830036
0.05079941201302823       643.7272113045972
0.05102891092631677       643.9541530203642
0.05125868051417213       644.1721762303042
0.051488900464733596      644.3812809344178
