% Model:              brazing.mph
% Version:            COMSOL 5.3.0.223
% Date:               Oct 20 2018, 01:54
% Dimension:          1
% Nodes:              193
% Expressions:        1
% Description:        Line graph
% x                       Height
0                         611.1663216415188
1.6028433640637486E-4     611.2405563485353
3.201839556876346E-4      611.3079771617388
4.7982673004648776E-4     611.3685840811293
6.393411493738095E-4      611.4223771067066
7.988560137323205E-4      611.4693562384708
9.58500122107595E-4       611.5095214764223
0.0011184019611720658     611.5428728205604
0.0012786893978073315     611.5694102708857
0.0014692881782178572     611.5895153718084
0.0016592398034323465     611.5937515169543
0.0018487589083489172     611.5821187063236
0.00203806159906999       611.5546169399163
0.0022273647228667317     611.5112462177323
0.0024168851255237504     611.4520065397716
0.002606838908709185      611.3768979060342
0.0027974407000143733     611.2859203165201
0.003000214284638094      611.1695009371937
0.0032022105766743216     611.0385403533443
0.003403687017647933      610.8930385649718
0.0036049030444305387     610.7329955720763
0.0038061191011872996     610.5584113746579
0.004007595631967136      610.3692859727165
0.00420959207329518       610.1656193662521
0.00441236586612622       609.9474115552648
0.004615139632985625      609.7010875062123
0.004817136048636202      609.4515497427791
0.005018612553936322      609.1987982649654
0.005219828585313435      608.942833072771
0.005421044586718146      608.6836541661961
0.0056225210022172924     608.4212615452406
0.005824517268584787      608.1556552099044
0.006027290827249049      607.8868351601876
0.006217890949519272      607.6082864522735
0.006407844130704021      607.3467260036738
0.0065973647866391935     607.1021538143882
0.00678666880286996       606.8745698844169
0.006975972806121895      606.66397421376
0.007165493423165078      606.4703668024173
0.007355446539677438      606.2937476503888
0.007546046571713631      606.1341167576746
0.00770633524869351       606.0141658451084
0.007866237248851195      605.9107128051303
0.008025880956992212      605.8237576377404
0.008185395381580456      605.7533003429386
0.008344909844757132      605.6993409207249
0.008504553668569658      605.6618793710995
0.008664455861201733      605.6409156940622
0.008824744806995652      605.636449889613
0.008985029143401957      605.6499872017233
0.009144928762683142      605.6838076762356
0.009304571537041926      605.7379113131497
0.009464085956369179      605.8122981124657
0.00962360082072762       605.9069680741835
0.009783244929102828      606.0219211983033
0.009943146768167231      606.1571574848248
0.010103434204802428      606.3126769337483
0.010294032985212885      606.4911508030234
0.010483984610427306      606.688085785858
0.01067350371534381       606.9034818822519
0.010862806406064813      607.1373390922051
0.011052109529861487      607.3896574157178
0.011241629932518437      607.6604368527899
0.011431583715703804      607.9496774034213
0.011622185507008923      608.2573790676122
0.011824959091632737      608.5617085426508
0.012026955383669057      608.8592944028975
0.012228431824642762      609.1501366483524
0.01242964785142546       609.4342352790155
0.012630863908182311      609.711590294887
0.012832340438962243      609.9822016959666
0.01303433688029038       610.2460694822545
0.013237110673121513      610.5031936537507
0.013439884439981065      610.7361757495596
0.013641880855631786      610.9510001125486
0.013843357360932049      611.1476667427178
0.014044573392309304      611.326175640067
0.014245789393714157      611.4865268045965
0.014447265809213447      611.628720236306
0.014649262075581083      611.7527559351956
0.01485203563424549       611.8586339012654
0.015042635756515686      611.9471918433344
0.015232588937700405      612.0200874620173
0.015422109593635547      612.0773207573137
0.015611413609866287      612.1188917292238
0.015800717613118194      612.1448003777476
0.01599023823016135       612.1550467028851
0.01618019134667368       612.1496307046361
0.016370791378709844      612.128552383001
0.016531080055689654      612.086298806726
0.01669098205584727       612.0408671351378
0.016850625763988217      611.9922573682366
0.017010140188576394      611.9404695060224
0.017169654651752998      611.8855035484952
0.017329298475565455      611.827359495655
0.017489200668197463      611.7660373475018
0.01764948961399131       611.7015371040354
0.01780977395039525       611.6073880090072
0.017969673569674088      611.5022948928982
0.018129316344030533      611.3862577557088
0.01828883076335545       611.2592765974388
0.01844834562771156       611.1213514180881
0.01860798973608443       610.9724822176571
0.018767891575146484      610.8126689961455
0.018928179011779317      610.6419117535534
0.019118777792188433      610.3822750774258
0.019308729417401523      610.1018256455781
0.019498248522316707      609.8005634580102
0.019687551213036395      609.4784885147222
0.019876854336831753      609.1356008157142
0.02006637473948738       608.7719003609861
0.020256328522671414      608.387387150538
0.020446930313975188      607.9820611843697
0.02064970389860279       607.4976642356739
0.02085170019064286       607.001456472907
0.02105317663162028       606.493437896069
0.02125439265840668       605.9736085051599
0.021455608715167235      605.4419683001796
0.02165708524595088       604.8985172811282
0.021859081687282764      604.3432554480057
0.02206185548011769       603.7761828008121
0.022264629246980954      603.2117163339673
0.022466625662635346      602.65868995543
0.022668102167939252      602.1171036652003
0.022869318199320136      601.5869574632783
0.023070534200728618      601.0682513496639
0.023272010616231548      600.5609853243573
0.023474006882602858      600.0651593873581
0.02367678044127098       599.5807735386666
0.02386738056353977       599.1140877137583
0.024057333744723106      598.6794338483779
0.02424685440065687       598.2768119425256
0.024436158416886237      597.9062219962011
0.02462546242013677       597.5676640094047
0.024814983037178547      597.2611379821361
0.025004936153689494      596.9866439143956
0.025195536185724256      596.7441818061831
0.0253558248627017        596.535663300169
0.025515726862856965      596.3545570898442
0.025675370570995573      596.2008631752086
0.02583488499558142       596.0745815562624
0.02599439945875569       595.9757122330054
0.02615404328256581       595.9042552054378
0.026313945475195465      595.8602104735594
0.026474234420986946      595.8435780373703
0.026634518757392422      595.8488794164128
0.02679441837667279       595.8784618236609
0.026954061151030752      595.9323252591145
0.02711357557035719       596.0104697227733
0.027273090434714816      596.1128952146378
0.027432734543089202      596.2396017347075
0.027592636382152785      596.3905892829829
0.02775292381878715       596.5658578594636
0.02794352259919713       596.7836527464733
0.02813347422441108       597.032405969363
0.028322993329327112      597.3121175281328
0.028512296020047647      597.6227874227828
0.02870159914384385       597.9644156533129
0.028891119546500334      598.3370022197232
0.02908107332968523       598.7405471220136
0.029271675120989875      599.1750503601841
0.02947444870561504       599.6522331235392
0.029676444997652693      600.1402158689659
0.02987792143862772       600.6389985964639
0.030079137465411736      601.1485813060333
0.030280353522169904      601.6689639976742
0.030481830052951155      602.2001466713863
0.030683826494280624      602.7421293271698
0.030886600287113104      603.2949119650248
0.03108937405397396       603.837238076332
0.03129137046962597       604.3732926052147
0.03149284697492751       604.9030755516727
0.03169406300630604       605.4265869157059
0.03189527900771217       605.9438266973144
0.03209675542321274       606.4547948964982
0.03229875168958166       606.9594915132574
0.03250152524824737       607.4579165475918
0.03269212537051706       607.8649626137202
0.03288207855170127       608.2492237850589
0.033071599207635916      608.6107000616076
0.033260903223866156      608.9493914433666
0.033450207227117564      609.2652979303357
0.033639727844160215      609.5584195225149
0.03382968096067204       609.8287562199044
0.034020280992707694      610.076308022504
0.034180569669686675      610.2530927893641
0.03434047166984347       610.4182966806576
0.0345001153779836        610.5719196963844
0.03465962980257096       610.7139618365445
0.03481914426574675       610.8444231011381
0.034978788089558385      610.9633034901649
0.03513869028218957       611.0706030036251
0.035298979227982585      611.1663216415188
