% Model:              brazing.mph
% Version:            COMSOL 5.3.0.223
% Date:               Oct 20 2018, 02:40
% Dimension:          1
% Nodes:              225
% Expressions:        1
% Description:        Line graph
% x                       Height
0                         661.6724207777273
2.3022181212578358E-4     661.54706025742
4.5999325066962656E-4     661.3932581368916
6.894940081029028E-4      661.2110144161426
9.189044129547812E-4      661.0003290951728
0.001148405006736289      660.7612021739823
0.0013781761183620641     660.4936336525708
0.001608397441069865      660.1976235309386
0.001839314118928521      659.5136942112719
0.0020697760201574002     658.8328166456411
0.002299964597801726      658.1549908340459
0.0025300619515304015     657.4802167764864
0.0027602503975112853     656.8084944729628
0.0029907120357255193     656.1398239234746
0.003221628319839081      655.4742051280225
0.0034518885683530987     654.595749472217
0.0036816980188178403     653.7093320072551
0.003911236592567028      652.8149527331366
0.004140684848157368      651.9126116498617
0.004370223557282477      651.0023087574303
0.004600033278179856      650.0840440558424
0.004830293931548535      649.1578175450979
0.005060048526376791      648.0423700169043
0.005289355629682316      646.9401016552339
0.005518393850920054      645.8510124600863
0.005747342428834         644.775102431462
0.00597638081262499       643.712371569361
0.006205688240655705      642.662819873783
0.006435443321622868      641.6264473447283
0.006665339619110656      640.5055482135276
0.006894787442849326      639.4059581007552
0.007123965728649401      638.3276770064109
0.007353054043912613      637.270704930495
0.007582232167524012      636.2350418730074
0.007811679667266285      635.2206878339477
0.008041575479707366      634.2276428133165
0.008271887219609135      633.2243551727734
0.008501747728772392      632.2573584415992
0.008731337046705121      631.326652619794
0.008960835851156599      630.4322377073581
0.009190425033567954      629.5741137042914
0.009420285272008154      628.7522806105936
0.009650596606620833      627.9667384262651
0.009881512912836019      627.2063193094662
0.010111974573021956      626.495674651666
0.010342163040896366      625.8348044528643
0.010572260416492441      625.2237087130613
0.010802449016030204      624.6623874322571
0.011032910939230619      624.1508406104514
0.011263827639190652      623.6890682476445
0.011494048967061755      623.2495495604472
0.011723820083820682      622.8851619386834
0.011953320682717213      622.595905382353
0.012182731092678062      622.3817798914561
0.012412231855226382      622.2427854659929
0.012642003298903411      622.1789221059629
0.012872225116192546      622.1901898113665
0.013102446994778118      622.059437759557
0.013332218499393473      622.0239542250725
0.01356171932266464       622.083739207913
0.013791129793276359      622.2387927080787
0.01402063045289555       622.4891147255694
0.014250401630592404      622.834705260385
0.014480623019759359      623.2755643125257
0.014711539835704642      623.5524949011249
0.014942001874208778      623.9110220533017
0.015172190588640395      624.3511457690562
0.01540228807899374       624.8728660483885
0.015632476661762654      625.4761828912987
0.015862938437253588      626.1610962977862
0.01609385485945594       626.9276062678517
0.016324115336228646      627.6106802835312
0.016553925013622208      628.3334719539546
0.016783463813500554      629.0959812791217
0.017012912294953733      629.8982082590323
0.01724245123020976       630.7401528936871
0.01747226117803945       631.6218151830851
0.017702522059672054      632.5431951272271
0.017932276794613372      633.4629078836755
0.018161584037218948      634.4091967619122
0.018390622397267263      635.382061761937
0.018619571113827754      636.3815028837505
0.018848609636427344      637.4075201273525
0.019077917203754128      638.4601134927426
0.019307672424828403      639.5392829799213
0.019537568573699274      640.5198279547739
0.01976701624968263       641.5163090434273
0.019996194388245302      642.5287262458813
0.020225282556443316      643.5570795621363
0.020454460532815345      644.6013689921924
0.02068390788479834       645.6615945360488
0.020913803548616574      646.7377561937063
0.02114411498977932       647.5977724282213
0.021373975201947604      648.4709005567004
0.02160356422393484       649.3571405791431
0.02183306273279162       650.25649249555
0.02206265161925901       651.1689563059208
0.02229251156070728       652.0945320102553
0.02252282259658549       653.033219608554
0.022753738766914562      653.6394268288817
0.022984200292012823      654.2474081156527
0.023214388625279938      654.8571634688665
0.023444485866429166      655.4686928885237
0.023674674331359946      656.0819963746243
0.023905136119473275      656.6970739271677
0.024136052683548088      657.3139255461545
0.024366274021741702      657.5252862689077
0.024596045148762867      657.7377878661215
0.024825545757885373      657.9514303377954
0.02505495617806012       658.1662136839294
0.02528445695083446       658.3821379045243
0.025514228404773787      658.5992029995788
0.025744450232385536      658.8174089690939
0.025974672267095825      658.6782543071129
0.026204443926923768      658.5164395880431
0.02643394490485871       658.3319648118843
0.02666335552995085       658.1248299786369
0.026892856344233315      657.8950350883005
0.02712262767714175       657.642580140875
0.02735284922243193       657.3674651363609
0.027583766528201624      656.7020926162337
0.027814229053652367      656.0274784166836
0.028044418253299775      655.3436225377104
0.02827451622829193       654.6505249793146
0.028504705296278778      653.948185741496
0.028735167558720572      653.2366048242542
0.028966084470753738      652.5157822275897
0.029196345605491433      651.6353844253285
0.02942615593701711       650.724289163939
0.02965569538872289       649.7824964434211
0.029885144521236064      648.810006263775
0.030114684108324883      647.8068186250009
0.030344494710297387      646.7729335270983
0.030574756249911007      645.7083509700675
0.030804511377321087      644.55001021724
0.031033819010118435      643.3837629107173
0.031262857758987544      642.2096090504992
0.03149180686390927       641.027548636586
0.031720845775323685      639.8375816689778
0.031950153732830305      638.6397081476739
0.032179909346355486      637.433928072675
0.0324098051544111        636.2382393198396
0.032639252491552244      635.0514189627058
0.03286843029245836       633.8734670012734
0.0330975181233935        632.7043834355425
0.03332669576210278       631.5441682655133
0.03355614277523119       630.3928214911855
0.033786038098215655      629.2503431125592
0.034016348759356954      628.1569363502585
0.03424620819605658       627.0989733302325
0.034475796445315066      626.0764540524809
0.03470529418235937       625.089378517004
0.03493488229610333       624.1377467238021
0.035164741462093585      623.2215586728744
0.03539505171796626       622.3408143642214
0.035625967353597694      621.5223197894306
0.03585642834714083       620.7606908191513
0.036086616150743635      620.0559274533831
0.03631671286286018       619.4080296921264
0.03654690079812825       618.8169975353813
0.036777362054689705      618.2828309831474
0.03700827808407173       617.8055300354249
0.03723849938140827       617.3810456788761
0.03746827046781093       617.0386255153663
0.03769777103645843       616.7782695448957
0.03792718141620601       616.599977767464
0.0381566821485052        616.5037501830716
0.03838645356182577       616.489586791718
0.03861667534858004       616.5574875934036
0.038846895274787324      616.5335285855019
0.039076664838430766      616.610485536618
0.03930616372759302       616.7883584467512
0.03953557226638858       617.067147315902
0.039765070991905134      617.4468521440704
0.039994840228642616      617.9274729312559
0.040225059665450036      618.5090096774591
0.04045597761776665       618.9815382829321
0.04068644078597457       619.5374531410946
0.04091663062609736       620.1767542519466
0.041146729240799984      620.8994416154882
0.04137691894925231       621.7055152317197
0.04160738185443156       622.5949751006403
0.04183829941298208       623.5678212222507
0.04206856149768976       624.4901091469864
0.04229837277362926       625.4500434455466
0.04252791316640542       626.4476241179316
0.04275736323887129       627.4828511641413
0.04298690376702529       628.5557245841759
0.04321671531340127       629.666244378035
0.04344697780296935       630.8144105457189
0.043676731016186174      632.0174417674128
0.04390603674591497       633.2305154079718
0.04413507359840861       634.4536314673957
0.04436402080919017       635.6867899456845
0.044593057824233256      636.9299908428388
0.04482236387867965       638.1832341588579
0.045052117578024006      639.4465198937422
0.045282012653644836      640.7131290153209
0.045511459262636354      641.9652859442187
0.04574063633797325       643.2029906804361
0.04596972344420469       644.4262432239726
0.046198900357357554      645.6350435748287
0.046428346642361965      646.8293917330038
0.04665824123294997       648.0092876984984
0.04688855484177433       649.1002721223392
0.04711841720894409       650.170034340275
0.04734800837831597       651.2185743523056
0.04757750903201372       652.2458921584312
0.047807100065861544      653.2519877586519
0.04803696216230292       654.2368611529671
0.04826727536583021       655.2005123413774
0.048498193048686675      655.9519953696591
0.048728656077441146      656.6796295202062
0.04895884590902903       657.3834147930182
0.04918894464672031       658.0633511880956
0.04941913460997818       658.7194387054382
0.04964959790176041       659.3516773450458
0.04988051597838159       659.9600671069187
0.05011073543954296       660.236608453259
0.0503405047004922        660.5025100018103
0.05057000345013497       660.757771752572
0.05079941201302823       661.0023937055446
0.05102891092631677       661.2363758607282
0.05125868051417213       661.4597182181222
0.051488900464733596      661.6724207777273
