% Model:              brazing.mph
% Version:            COMSOL 5.3.0.223
% Date:               Oct 20 2018, 02:26
% Dimension:          1
% Nodes:              145
% Expressions:        1
% Description:        Line graph
% x                       Height
0                         653.3026930066331
1.8037553861809572E-4     653.555564695764
3.5951128344368776E-4     653.7557473620982
5.377561773732229E-4      653.903241005636
7.154644111300318E-4      653.9980456263773
8.929933875627798E-4      654.0401612243221
0.0010707015910786408     654.0295877994705
0.0012489464247083767     653.9663253518222
0.0014280820795340731     653.8503738813773
0.0016084574989771061     653.6817333881361
0.0017793134314883058     653.610643921779
0.0019491114898538484     653.514976549228
0.002118149876008701      653.3947312704834
0.0022867308232763497     653.249908085545
0.002455159027530182      653.080506994413
0.0026237400128558564     652.8865279970872
0.0027927784749207734     652.6679710935675
0.0029625766466419693     652.4248362838541
0.0031334327293582195     652.1571235679472
0.0033042867504275058     651.967484684914
0.0034740828875811486     651.7737471945721
0.0036431193341009516     651.575911096922
0.0038116983146850476     651.3739763919633
0.003980124516686077      651.1679430796961
0.004148703455848711      650.9578111601204
0.004317739819749776      650.7435806332362
0.004487535833529769      650.5252514990433
0.004658389691119368      650.3028237575422
0.0048387629974717405     650.1689189419419
0.005017896580971026      650.0428554993837
0.005196139373513023      649.9246334298681
0.0053738455543625        649.8142527333946
0.005551372514551955      649.7117134099636
0.005729078726427549      649.617015459575
0.005907321580834967      649.5301588822284
0.006086455256670912      649.4511436779244
0.006266828685292636      649.3799698466628
0.0064472042239161545     649.5211713665758
0.0066263399687470585     649.6728797871395
0.00680458486268183       649.8350951083543
0.0069822930964438265     650.0078173302198
0.007159822072881748      650.1910464527364
0.007337530276402798      650.3847824759036
0.007515775110037768      650.5890253997218
0.007694910764868775      650.8037752241908
0.007875286184317232      651.0290319493107
0.008046142116827224      651.3107152957485
0.008215940175191578      651.5851514247088
0.008384978561345261      651.852340336192
0.008553559508611747      652.1122820301981
0.008721987712864422      652.3649765067269
0.008890568698188937      652.6104237657785
0.00905960716025268       652.8486238073527
0.009229405331972688      653.0795766314496
0.009400261414687729      653.3032822380695
0.009571115435747398      653.629857393673
0.009740911572891598      653.9267813913434
0.009909948019402086      654.1940542310809
0.010078526999976944      654.4316759128857
0.010246953201968763      654.6396464367574
0.010415532141122159      654.8179658026962
0.010584568505013912      654.9666340107021
0.010754364518784467      655.0856510607748
0.010925218376364454      655.1750169529148
0.011105591682722255      655.3396598153299
0.01128472526622686       655.4578296540554
0.011462968058774099      655.5295264690918
0.011640674239628768      655.5547502604388
0.011818201199823401      655.5335010280965
0.01199590741170419       655.4657787720646
0.012174150266116847      655.3515834923435
0.012353283941958112      655.1909151889328
0.012533657370585264      654.9837738618329
0.01271403176453574       654.9240643299784
0.012893166387683227      654.8107280938495
0.013071410176518557      654.6437651534468
0.013249117315197753      654.42317550877
0.013426645199902413      654.1489591598191
0.013604352308338922      653.8211161065943
0.01378259603687098       653.4396463490954
0.013961730570013379      653.004549887322
0.014142104844781908      652.5158267212751
0.014312959944399205      652.0935972017008
0.014482757184992078      651.6474413374491
0.014651794764271453      651.17735912852
0.014820374911240972      650.6833505749133
0.014988802317395246      650.1654156766292
0.01515738250242126       649.6235544336677
0.015326420157607648      649.0577668460286
0.015496217511551624      648.468052913712
0.015667072761367945      647.8544126367179
0.01583792791479403       647.3081933842657
0.016007725163749622      646.7713641218737
0.01617676270725794       646.2439248495425
0.01634534277588875       645.7258755672717
0.016513770062946447      645.2172162750613
0.01668235009015449       644.7179469729117
0.016851387551041475      644.2280676608225
0.017021184676619543      643.7475783387936
0.017192039666560827      643.2764790068253
0.017372413817338207      642.8783260145777
0.017551548228302124      642.5098861762127
0.017729791836073705      642.1711594917308
0.017907498824762332      641.8621459611315
0.018085026590318725      641.582845584415
0.018262733610032132      641.3332583615813
0.018440977279666457      641.1133842926304
0.018620111782963036      640.923223377562
0.018800486056004474      640.7627756163765
0.018980860449944497      640.8374591616304
0.019159995073081745      640.9469909301424
0.019338238861906984      641.091370921913
0.01951594600057618       641.2705991369418
0.019693473885270874      641.484675575229
0.019871180993697383      641.7336002367745
0.020049424722219357      642.0173731215783
0.02022855925535152       642.3359942296404
0.0204089335301096        642.6894635609609
0.02057978862980686       643.1020713433054
0.020749585870478253      643.520053216009
0.020918623449835097      643.9434091790724
0.021087203596881453      644.3721392324952
0.021255631003112355      644.8062433762775
0.021424211188215206      645.2457216104194
0.021593248843479067      645.6905739349205
0.021763046197501558      646.1408003497812
0.02193390144739785       646.5964008550014
0.022104756600747556      647.1802579997951
0.02227455384962815       647.7391970136619
0.02244359139306247       648.2732178966021
0.022612171461619885      648.7823206486154
0.022780598748604386      649.266505269702
0.022949178775739036      649.7257717598619
0.02311821623655202       650.1601201190949
0.023288013362055097      650.5695503474012
0.023458868351919994      650.9540624447808
0.02363924250270423       651.4015559728695
0.023818376913674867      651.8024158567649
0.023996620521453065      652.1566420964676
0.02417432751014825       652.4642346919776
0.02435185527571118       652.7251936432945
0.024529562295431146      652.9395189504185
0.02470780596507209       653.1072106133496
0.024886940468375387      653.2282686320879
0.025067314741423676      653.3026930066331
