% Model:              brazing.mph
% Version:            COMSOL 5.3.0.223
% Date:               Oct 20 2018, 03:22
% Dimension:          1
% Nodes:              145
% Expressions:        1
% Description:        Line graph
% x                       Height
0                         617.9036866651097
1.8037553861809572E-4     618.1616227711729
3.5951128344368776E-4     618.3662954366322
5.377561773732229E-4      618.5177046614879
7.154644111300318E-4      618.6158504457399
8.929933875627798E-4      618.6607327893879
0.0010707015910786408     618.6523516924325
0.0012489464247083767     618.5907071548731
0.0014280820795340731     618.4757991767101
0.0016084574989771061     618.3076277579434
0.0017793134314883058     618.243234341645
0.0019491114898538484     618.1543368956709
0.002118149876008701      618.0409354200212
0.0022867308232763497     617.903029914696
0.002455159027530182      617.7406203796951
0.0026237400128558564     617.5537068150185
0.0027927784749207734     617.3422892206662
0.0029625766466419693     617.1063675966382
0.0031334327293582195     616.8459419429346
0.0033042867504275058     616.6740360904757
0.0034740828875811486     616.4968149884646
0.0036431193341009516     616.3142786369016
0.0038116983146850476     616.1264270357864
0.003980124516686077      615.933260185119
0.004148703455848711      615.7347780848997
0.004317739819749776      615.5309807351282
0.004487535833529769      615.3218681358045
0.004658389691119368      615.1074402869289
0.0048387629974717405     614.9873528075198
0.005017896580971026      614.8717015943935
0.005196139373513023      614.7604866475502
0.0053738455543625        614.6537079669898
0.005551372514551955      614.5513655527124
0.005729078726427549      614.4534594047177
0.005907321580834967      614.3599895230059
0.006086455256670912      614.2709559075769
0.006266828685292636      614.1863585584309
0.0064472042239161545     614.331620132649
0.0066263399687470585     614.4845034360874
0.00680458486268183       614.6450084687464
0.0069822930964438265     614.8131352306257
0.007159822072881748      614.9888837217253
0.007337530276402798      615.1722539420455
0.007515775110037768      615.363245891586
0.007694910764868775      615.5618595703468
0.007875286184317232      615.7680949783281
0.008046142116827224      616.0336233524946
0.008215940175191578      616.2906695517347
0.008384978561345261      616.5392335760488
0.008553559508611747      616.7793154254366
0.008721987712864422      617.0109150998979
0.008890568698188937      617.2340325994334
0.00905960716025268       617.4486679240422
0.009229405331972688      617.6548210737249
0.009400261414687729      617.8524920484814
0.009571115435747398      618.1656157491286
0.009740911572891598      618.449312540302
0.009909948019402086      618.703582422002
0.010078526999976944      618.9284253942284
0.010246953201968763      619.123841456981
0.010415532141122159      619.2898306102602
0.010584568505013912      619.4263928540656
0.010754364518784467      619.5335281883974
0.010925218376364454      619.6112366132558
0.011105591682722255      619.7692262207987
0.01128472526622686       619.8817926096552
0.011462968058774099      619.9489357798257
0.011640674239628768      619.97065573131
0.011818201199823401      619.9469524641078
0.01199590741170419       619.8778259782196
0.012174150266116847      619.7632762736448
0.012353283941958112      619.603303350384
0.012533657370585264      619.3979072084369
0.01271403176453574       619.3637391182111
0.012893166387683227      619.2762276900373
0.013071410176518557      619.135372923916
0.013249117315197753      618.9411748198469
0.013426645199902413      618.6936333778299
0.013604352308338922      618.3927485978654
0.01378259603687098       618.0385204799529
0.013961730570013379      617.6309490240928
0.014142104844781908      617.170034230285
0.014312959944399205      616.7797399871531
0.014482757184992078      616.3656301628245
0.014651794764271453      615.9277047572994
0.014820374911240972      615.4659637705776
0.014988802317395246      614.9804072026592
0.01515738250242126       614.4710350535441
0.015326420157607648      613.9378473232323
0.015496217511551624      613.380844011724
0.015667072761367945      612.800025119019
0.01583792791479403       612.2974249487936
0.016007725163749622      611.8022181616074
0.01617676270725794       611.3144047574607
0.01634534277588875       610.8339847363535
0.016513770062946447      610.3609580982856
0.01668235009015449       609.8953248432572
0.016851387551041475      609.4370849712681
0.017021184676619543      608.9862384823183
0.017192039666560827      608.542785376408
0.017372413817338207      608.178393459707
0.017551548228302124      607.8390425745217
0.017729791836073705      607.5247327208527
0.017907498824762332      607.2354638986997
0.018085026590318725      606.9712361080626
0.018262733610032132      606.7320493489416
0.018440977279666457      606.5179036213366
0.018620111782963036      606.3287989252474
0.018800486056004474      606.1647352606744
0.018980860449944497      606.2518005503656
0.019159995073081745      606.3693605280152
0.019338238861906984      606.5174151936236
0.01951594600057618       606.6959645471904
0.019693473885270874      606.9050085887158
0.019871180993697383      607.1445473181998
0.020049424722219357      607.4145807356421
0.02022855925535152       607.715108841043
0.0204089335301096        608.0461316344026
0.02057978862980686       608.4389616639866
0.020749585870478253      608.8344177924621
0.020918623449835097      609.2325000198296
0.021087203596881453      609.6332083460886
0.021255631003112355      610.0365427712396
0.021424211188215206      610.4425032952824
0.021593248843479067      610.8510899182169
0.021763046197501558      611.2623026400431
0.02193390144739785       611.6761414607612
0.022104756600747556      612.2328961205972
0.02227455384962815       612.764227068202
0.02244359139306247       613.2701343035759
0.022612171461619885      613.7506178267187
0.022780598748604386      614.2056776376303
0.022949178775739036      614.635313736311
0.02311821623655202       615.0395261227605
0.023288013362055097      615.418314796979
0.023458868351919994      615.7716797589665
0.02363924250270423       616.1930677988352
0.023818376913674867      616.5683312427959
0.023996620521453065      616.8974700908494
0.02417432751014825       617.1804843429952
0.02435185527571118       617.4173739992333
0.024529562295431146      617.608139059564
0.02470780596507209       617.7527795239869
0.024886940468375387      617.851295392502
0.025067314741423676      617.9036866651097
