% Model:              brazing.mph
% Version:            COMSOL 5.3.0.223
% Date:               Oct 20 2018, 02:03
% Dimension:          1
% Nodes:              145
% Expressions:        1
% Description:        Line graph
% x                       Height
0                         623.1296735202039
1.8037553861809572E-4     623.3901901204689
3.5951128344368776E-4     623.596314446275
5.377561773732229E-4      623.7480464976223
7.154644111300318E-4      623.8453862745109
8.929933875627798E-4      623.8883337769407
0.0010707015910786408     623.8768890049117
0.0012489464247083767     623.811051958424
0.0014280820795340731     623.6908226374771
0.0016084574989771061     623.5162010420718
0.0017793134314883058     623.4466994823475
0.0019491114898538484     623.3521654089712
0.002118149876008701      623.2325988219433
0.0022867308232763497     623.0879997212635
0.002455159027530182      622.9183681069317
0.0026237400128558564     622.7237039789482
0.0027927784749207734     622.5040073373127
0.0029625766466419693     622.2592781820255
0.0031334327293582195     621.9895165130864
0.0033042867504275058     621.8080590675996
0.0034740828875811486     621.621540292559
0.0036431193341009516     621.4299601879648
0.0038116983146850476     621.2333187538168
0.003980124516686077      621.0316159901149
0.004148703455848711      620.8248518968593
0.004317739819749776      620.61302647405
0.004487535833529769      620.396139721687
0.004658389691119368      620.1741916397701
0.0048387629974717405     620.0480912064054
0.005017896580971026      619.9274968714429
0.005196139373513023      619.8124086348832
0.0053738455543625        619.7028264967263
0.005551372514551955      619.5987504569717
0.005729078726427549      619.50018051562
0.005907321580834967      619.4071166726706
0.006086455256670912      619.3195589281237
0.006266828685292636      619.2375072819796
0.0064472042239161545     619.3871443440313
0.0066263399687470585     619.5454160411962
0.00680458486268183       619.7123223734748
0.0069822930964438265     619.8878633408669
0.007159822072881748      620.0720389433724
0.007337530276402798      620.2648491809916
0.007515775110037768      620.466294053724
0.007694910764868775      620.6763735615699
0.007875286184317232      620.8950877045295
0.008046142116827224      621.1742470466943
0.008215940175191578      621.4450191554122
0.008384978561345261      621.7074040306836
0.008553559508611747      621.9614016725084
0.008721987712864422      622.2070120808864
0.008890568698188937      622.4442352558181
0.00905960716025268       622.6730711973028
0.009229405331972688      622.8935199053408
0.009400261414687729      623.1055813799323
0.009571115435747398      623.4329636701968
0.009740911572891598      623.7300909983545
0.009909948019402086      623.9969633644059
0.010078526999976944      624.2335807683506
0.010246953201968763      624.4399432101889
0.010415532141122159      624.6160506899205
0.010584568505013912      624.7619032075455
0.010754364518784467      624.877500763064
0.010925218376364454      624.9628433564759
0.011105591682722255      625.1291874749517
0.01128472526622686       625.2487392210595
0.011462968058774099      625.3214985948002
0.011640674239628768      625.3474655961732
0.011818201199823401      625.3266402251787
0.01199590741170419       625.2590224818166
0.012174150266116847      625.1446123660869
0.012353283941958112      624.9834098779896
0.012533657370585264      624.7754150175249
0.01271403176453574       624.7368466013543
0.012893166387683227      624.6433420069463
0.013071410176518557      624.4949012343016
0.013249117315197753      624.2915242834199
0.013426645199902413      624.0332111543011
0.013604352308338922      623.7199618469454
0.01378259603687098       623.3517763613524
0.013961730570013379      622.9286546975226
0.014142104844781908      622.4505968554557
0.014312959944399205      622.0439879180137
0.014482757184992078      621.6127724076866
0.014651794764271453      621.1569503244749
0.014820374911240972      620.6765216683782
0.014988802317395246      620.1714864393966
0.01515738250242126       619.6418446375302
0.015326420157607648      619.0875962627788
0.015496217511551624      618.5087413151425
0.015667072761367945      617.9052797946215
0.01583792791479403       617.379185493214
0.016007725163749622      616.8609983231104
0.01617676270725794       616.3507182843111
0.01634534277588875       615.8483453768162
0.016513770062946447      615.3538796006251
0.01668235009015449       614.8673209557384
0.016851387551041475      614.3886694421556
0.017021184676619543      613.917925059877
0.017192039666560827      613.4550878089026
0.017372413817338207      613.0724970125801
0.017551548228302124      612.7166290204945
0.017729791836073705      612.3874838326456
0.017907498824762332      612.0850614490334
0.018085026590318725      611.809361869658
0.018262733610032132      611.5603850945195
0.018440977279666457      611.3381311236176
0.018620111782963036      611.1425999569524
0.018800486056004474      610.9737915945242
0.018980860449944497      611.0586523072448
0.019159995073081745      611.1757817181615
0.019338238861906984      611.3251798272747
0.01951594600057618       611.5068466345843
0.019693473885270874      611.7207821400904
0.019871180993697383      611.9669863437927
0.020049424722219357      612.2454592456913
0.02022855925535152       612.5562008457865
0.0204089335301096        612.899211144078
0.02057978862980686       613.3058851587394
0.020749585870478253      613.715780109347
0.020918623449835097      614.1288959959008
0.021087203596881453      614.5452328184011
0.021255631003112355      614.9647905768475
0.021424211188215206      615.3875692712402
0.021593248843479067      615.8135689015791
0.021763046197501558      616.2427894678642
0.02193390144739785       616.6752309700956
0.022104756600747556      617.2507699328573
0.02227455384962815       617.8002431801765
0.02244359139306247       618.3236507120532
0.022612171461619885      618.8209925284875
0.022780598748604386      619.2922686294795
0.022949178775739036      619.737479015029
0.02311821623655202       620.1566236851359
0.023288013362055097      620.5497026398002
0.023458868351919994      620.9167158790224
0.02363924250270423       621.3521640012001
0.023818376913674867      621.7402211384215
0.023996620521453065      622.0808872906872
0.02417432751014825       622.3741624579968
0.02435185527571118       622.6200466403502
0.024529562295431146      622.8185398377478
0.02470780596507209       622.9696420501891
0.024886940468375387      623.0733532776745
0.025067314741423676      623.1296735202039
