% Model:              brazing.mph
% Version:            COMSOL 5.3.0.223
% Date:               Oct 20 2018, 02:25
% Dimension:          1
% Nodes:              145
% Expressions:        1
% Description:        Line graph
% x                       Height
0                         635.9520710359491
1.8037553861809572E-4     636.2283592203921
3.5951128344368776E-4     636.4473894013554
5.377561773732229E-4      636.6091615788393
7.154644111300318E-4      636.7136757528435
8.929933875627798E-4      636.760931923368
0.0010707015910786408     636.7509300904131
0.0012489464247083767     636.6836702539784
0.0014280820795340731     636.5591524140641
0.0016084574989771061     636.3773765706703
0.0017793134314883058     636.3068757256334
0.0019491114898538484     636.2101470897695
0.002118149876008701      636.087190663079
0.0022867308232763497     635.9380064455618
0.002455159027530182      635.7625944372176
0.0026237400128558564     635.5609546380467
0.0027927784749207734     635.3330870480489
0.0029625766466419693     635.0789916672243
0.0031334327293582195     634.798668495573
0.0033042867504275058     634.6141981348546
0.0034740828875811486     634.424089174158
0.0036431193341009516     634.2283416134832
0.0038116983146850476     634.0269554528302
0.003980124516686077      633.8199306921989
0.004148703455848711      633.6072673315895
0.004317739819749776      633.3889653710017
0.004487535833529769      633.1650248104357
0.004658389691119368      632.9354456498917
0.0048387629974717405     632.8085894668668
0.005017896580971026      632.6864905133222
0.005196139373513023      632.5691487892583
0.0053738455543625        632.4565642946751
0.005551372514551955      632.3487370295721
0.005729078726427549      632.2456669939498
0.005907321580834967      632.1473541878079
0.006086455256670912      632.0537986111465
0.006266828685292636      631.9650002639657
0.0064472042239161545     632.1246323824383
0.0066263399687470585     632.2924397504869
0.00680458486268183       632.4684223681119
0.0069822930964438265     632.652580235313
0.007159822072881748      632.8449133520905
0.007337530276402798      633.0454217184441
0.007515775110037768      633.2541053343741
0.007694910764868775      633.4709641998801
0.007875286184317232      633.6959983149625
0.008046142116827224      633.9856159814547
0.008215940175191578      634.2660054171017
0.008384978561345261      634.5371666219042
0.008553559508611747      634.7990995958618
0.008721987712864422      635.0518043389746
0.008890568698188937      635.2952808512426
0.00905960716025268       635.5295291326657
0.009229405331972688      635.7545491832441
0.009400261414687729      635.9703410029775
0.009571115435747398      636.3108530426614
0.009740911572891598      636.6196567180133
0.009909948019402086      636.8967520290339
0.010078526999976944      637.1421389757228
0.010246953201968763      637.3558175580799
0.010415532141122159      637.5377877761056
0.010584568505013912      637.6880496297994
0.010754364518784467      637.8066031191617
0.010925218376364454      637.8934482441923
0.011105591682722255      638.0654152272143
0.01128472526622686       638.1885462505103
0.011462968058774099      638.2628413140803
0.011640674239628768      638.2883004179245
0.011818201199823401      638.2649235620426
0.01199590741170419       638.1927107464348
0.012174150266116847      638.071661971101
0.012353283941958112      637.9017772360412
0.012533657370585264      637.6830565412554
0.01271403176453574       637.64848499965
0.012893166387683227      637.5563670156403
0.013071410176518557      637.4067025892264
0.013249117315197753      637.1994917204083
0.013426645199902413      636.9347344091859
0.013604352308338922      636.6124306555594
0.01378259603687098       636.2325804595285
0.013961730570013379      635.7951838210934
0.014142104844781908      635.300240740254
0.014312959944399205      634.8811195820126
0.014482757184992078      634.4362799509262
0.014651794764271453      633.9657218469949
0.014820374911240972      633.4694452702189
0.014988802317395246      632.947450220598
0.01515738250242126       632.3997366981322
0.015326420157607648      631.8263047028214
0.015496217511551624      631.2271542346657
0.015667072761367945      630.6022852936653
0.01583792791479403       630.0622653339838
0.016007725163749622      629.529920063727
0.01617676270725794       629.0052494828954
0.01634534277588875       628.4882535914885
0.016513770062946447      627.9789323895068
0.01668235009015449       627.47728587695
0.016851387551041475      626.9833140538179
0.017021184676619543      626.497016920111
0.017192039666560827      626.018394475829
0.017372413817338207      625.6263380707081
0.017551548228302124      625.2608542454085
0.017729791836073705      624.9219429999303
0.017907498824762332      624.6096043342734
0.018085026590318725      624.3238382484379
0.018262733610032132      624.0646447424238
0.018440977279666457      623.832023816231
0.018620111782963036      623.6259754698593
0.018800486056004474      623.4464997033093
0.018980860449944497      623.53795448919
0.019159995073081745      623.661922569748
0.019338238861906984      623.8184039449835
0.01951594600057618       624.0073986148964
0.019693473885270874      624.2289065794868
0.019871180993697383      624.4829278387546
0.020049424722219357      624.7694623926998
0.02022855925535152       625.0885102413223
0.0204089335301096        625.4400713846223
0.02057978862980686       625.8600462496267
0.020749585870478253      626.2825145075678
0.020918623449835097      626.7074761584458
0.021087203596881453      627.1349312022609
0.021255631003112355      627.5648796390126
0.021424211188215206      627.9973214687012
0.021593248843479067      628.4322566913266
0.021763046197501558      628.8696853068889
0.02193390144739785       629.3096073153881
0.022104756600747556      629.9051206781623
0.02227455384962815       630.4732704733694
0.02244359139306247       631.01405670101
0.022612171461619885      631.5274793610838
0.022780598748604386      632.0135384535906
0.022949178775739036      632.4722339785308
0.02311821623655202       632.903565935904
0.023288013362055097      633.3075343257105
0.023458868351919994      633.6841391479502
0.02363924250270423       634.1338413102675
0.023818376913674867      634.5341160400051
0.023996620521453065      634.8849633371636
0.02417432751014825       635.186383201743
0.02435185527571118       635.4383756337428
0.024529562295431146      635.6409406331634
0.02470780596507209       635.7940782000046
0.024886940468375387      635.8977883342665
0.025067314741423676      635.9520710359491
