% Model:              brazing.mph
% Version:            COMSOL 5.3.0.223
% Date:               Oct 20 2018, 02:37
% Dimension:          1
% Nodes:              193
% Expressions:        1
% Description:        Line graph
% x                       Height
0                         637.2284546340346
1.6028433640637486E-4     637.3117523002483
3.201839556876346E-4      637.3878024546726
4.7982673004648776E-4     637.4566050973078
6.393411493738095E-4      637.5181602281536
7.988560137323205E-4      637.5724678472102
9.58500122107595E-4       637.6195279544776
0.0011184019611720658     637.6593405499555
0.0012786893978073315     637.6919056336442
0.0014692881782178572     637.7175162570356
0.0016592398034323465     637.7251970776003
0.0018487589083489172     637.7149480953384
0.00203806159906999       637.6867693102498
0.0022273647228667317     637.6406607223346
0.0024168851255237504     637.5766223315926
0.002606838908709185      637.4946541380239
0.0027974407000143733     637.3947561416285
0.003000214284638094      637.2646952102316
0.0032022105766743216     637.1177468779617
0.003403687017647933      636.953911144819
0.0036049030444305387     636.7731880108033
0.0038061191011872996     636.5755774759147
0.004007595631967136      636.3610795401531
0.00420959207329518       636.1296942035186
0.00441236586612622       635.8814214660111
0.004615139632985625      635.5967599233821
0.004817136048636202      635.3084931167876
0.005018612553936322      635.0166210462277
0.005219828585313435      634.7211437117021
0.005421044586718146      634.4220611132109
0.0056225210022172924     634.1193732507542
0.005824517268584787      633.813080124332
0.006027290827249049      633.5031817339442
0.006217890949519272      633.1792407001919
0.006407844130704021      632.8753763249206
0.0065973647866391935     632.5915886081305
0.00678666880286996       632.3278775498213
0.006975972806121895      632.0842431499932
0.007165493423165078      631.8606854086462
0.007355446539677438      631.6572043257803
0.007546046571713631      631.4737999013954
0.00770633524869351       631.3376303006036
0.007866237248851195      631.2207551461034
0.008025880956992212      631.1231744378949
0.008185395381580456      631.0448881759781
0.008344909844757132      630.9858963603531
0.008504553668569658      630.9461989910195
0.008664455861201733      630.9257960679778
0.008824744806995652      630.9246875912277
0.008985029143401957      630.9455264219185
0.009144928762683142      630.9900924417768
0.009304571537041926      631.0583856508025
0.009464085956369179      631.1504060489957
0.00962360082072762       631.2661536363564
0.009783244929102828      631.4056284128844
0.009943146768167231      631.56883037858
0.010103434204802428      631.7557595334429
0.010294032985212885      631.971935351067
0.010483984610427306      632.2097159211067
0.01067350371534381       632.4691012435618
0.010862806406064813      632.7500913184322
0.011052109529861487      633.052686145718
0.011241629932518437      633.3768857254191
0.011431583715703804      633.7226900575356
0.011622185507008923      634.0900991420675
0.011824959091632737      634.4509515471192
0.012026955383669057      634.8037189256082
0.012228431824642762      635.1484012775343
0.01242964785142546       635.4849986028977
0.012630863908182311      635.8135109016982
0.012832340438962243      636.1339381739361
0.01303433688029038       636.4462804196113
0.013237110673121513      636.7505376387236
0.013439884439981065      637.0219729699294
0.013641880855631786      637.2721025218967
0.013843357360932049      637.5009262946261
0.014044573392309304      637.708444288117
0.014245789393714157      637.8946565023697
0.014447265809213447      638.059562937384
0.014649262075581083      638.2031635931603
0.01485203563424549       638.3254584696982
0.015042635756515686      638.4270815986306
0.015232588937700405      638.5107149155791
0.015422109593635547      638.5763584205437
0.015611413609866287      638.6240121135243
0.015800717613118194      638.653675994521
0.01599023823016135       638.6653500635338
0.01618019134667368       638.6590343205627
0.016370791378709844      638.6347287656076
0.016531080055689654      638.5851323165954
0.01669098205584727       638.5323856517897
0.016850625763988217      638.4764887711905
0.017010140188576394      638.4174416747979
0.017169654651752998      638.355244362612
0.017329298475565455      638.2898968346325
0.017489200668197463      638.2213990908597
0.01764948961399131       638.1497511312934
0.01780977395039525       638.0424190949481
0.017969673569674088      637.922472970703
0.018129316344030533      637.7899127585578
0.01828883076335545       637.644738458513
0.01844834562771156       637.4869500705682
0.01860798973608443       637.3165475947236
0.018767891575146484      637.1335310309793
0.018928179011779317      636.937900379335
0.019118777792188433      636.6398178287324
0.019308729417401523      636.3175222872288
0.019498248522316707      635.9710137548246
0.019687551213036395      635.6002922315197
0.019876854336831753      635.2053577173141
0.02006637473948738       634.7862102122075
0.020256328522671414      634.3428497162004
0.020446930313975188      633.8752762292925
0.02064970389860279       633.3079719529235
0.02085170019064286       632.7266889699755
0.02105317663162028       632.1314272804486
0.02125439265840668       631.5221868843428
0.021455608715167235      630.8989677816579
0.02165708524595088       630.2617699723943
0.021859081687282764      629.6105934565516
0.02206185548011769       628.9454382341299
0.022264629246980954      628.278897737215
0.022466625662635346      627.6256909690736
0.022668102167939252      626.9858179297058
0.022869318199320136      626.3592786191116
0.023070534200728618      625.7460730372909
0.023272010616231548      625.1462011842438
0.023474006882602858      624.5596630599703
0.02367678044127098       623.9864586644702
0.02386738056353977       623.4325494493552
0.024057333744723106      622.9162521496995
0.02424685440065687       622.4375667655033
0.024436158416886237      621.9964932967665
0.02462546242013677       621.5930317434891
0.024814983037178547      621.2271821056711
0.025004936153689494      620.8989443833126
0.025195536185724256      620.6083185764135
0.0253558248627017        620.3595991987486
0.025515726862856965      620.1428468693468
0.025675370570995573      619.9580615882081
0.02583488499558142       619.8052433553324
0.02599439945875569       619.6843921707199
0.02615404328256581       619.5955080343704
0.026313945475195465      619.538590946284
0.026474234420986946      619.5136409064606
0.026634518757392422      619.5158696071807
0.02679441837667279       619.5463157699206
0.026954061151030752      619.6049793946808
0.02711357557035719       619.6918604814609
0.027273090434714816      619.8069590302612
0.027432734543089202      619.9502750410815
0.027592636382152785      620.1218085139219
0.02775292381878715       620.3215594487823
0.02794352259919713       620.5726392594225
0.02813347422441108       620.8601440889314
0.028322993329327112      621.184073937309
0.028512296020047647      621.5444288045552
0.02870159914384385       621.94120869067
0.028891119546500334      622.3744135956534
0.02908107332968523       622.8440435195055
0.029271675120989875      623.3500984622261
0.02947444870561504       623.904580062622
0.029676444997652693      624.4720182848738
0.02987792143862772       625.0524131289814
0.030079137465411736      625.6457645949448
0.030280353522169904      626.252072682764
0.030481830052951155      626.8713373924392
0.030683826494280624      627.5035587239702
0.030886600287113104      628.148736677357
0.03108937405397396       628.7788905607963
0.03129137046962597       629.4017799779842
0.03149284697492751       630.0174049289208
0.03169406300630604       630.6257654136058
0.03189527900771217       631.2268614320394
0.03209675542321274       631.8206929842218
0.03229875168958166       632.4072600701526
0.03250152524824737       632.9865626898321
0.03269212537051706       633.4556648725596
0.03288207855170127       633.8982411025636
0.033071599207635916      634.3142913798439
0.033260903223866156      634.7038157044005
0.033450207227117564      635.0668140762335
0.033639727844160215      635.403286495343
0.03382968096067204       635.7132329617286
0.034020280992707694      635.9966534753908
0.034180569669686675      636.1962076720177
0.03434047166984347       636.382739282417
0.0345001153779836        636.5562483065888
0.03465962980257096       636.7167347445331
0.03481914426574675       636.8641985962498
0.034978788089558385      636.998639861739
0.03513869028218957       637.1200585410006
0.035298979227982585      637.2284546340346
