% Model:              brazing.mph
% Version:            COMSOL 5.3.0.223
% Date:               Oct 20 2018, 01:40
% Dimension:          1
% Nodes:              193
% Expressions:        1
% Description:        Line graph
% x                       Height
0                         581.2688917397163
1.6028433640637486E-4     581.3484403162661
3.201839556876346E-4      581.4209553402704
4.7982673004648776E-4     581.4864368117293
6.393411493738095E-4      581.5448847306426
7.988560137323205E-4      581.5962990970104
9.58500122107595E-4       581.6406799108327
0.0011184019611720658     581.6780271721094
0.0012786893978073315     581.7083408808406
0.0014692881782178572     581.7319236018537
0.0016592398034323465     581.7385400136733
0.0018487589083489172     581.7281901162995
0.00203806159906999       581.7008739097322
0.0022273647228667317     581.6565913939714
0.0024168851255237504     581.5953425690175
0.002606838908709185      581.5171274348698
0.0027974407000143733     581.4219459915289
0.003000214284638094      581.3003208043363
0.0032022105766743216     581.1628512968671
0.003403687017647933      581.0095374691214
0.0036049030444305387     580.8403793210994
0.0038061191011872996     580.6553768528008
0.004007595631967136      580.4545300642258
0.00420959207329518       580.2378389553742
0.00441236586612622       580.0053035262462
0.004615139632985625      579.7399586710712
0.004817136048636202      579.4713742271476
0.005018612553936322      579.1995501944753
0.005219828585313435      578.9244865730544
0.005421044586718146      578.6461833628849
0.0056225210022172924     578.3646405639668
0.005824517268584787      578.0798581762999
0.006027290827249049      577.7918361998845
0.006217890949519272      577.492546034187
0.006407844130704021      577.2117381906534
0.0065973647866391935     576.9494126692834
0.00678666880286996       576.7055694700773
0.006975972806121895      576.480208593035
0.007165493423165078      576.2733300381562
0.007355446539677438      576.0849338054414
0.007546046571713631      575.9150198948904
0.00770633524869351       575.7881724228724
0.007866237248851195      575.6792980638234
0.008025880956992212      575.5883968177436
0.008185395381580456      575.5154686846327
0.008344909844757132      575.4605136644908
0.008504553668569658      575.4235317573181
0.008664455861201733      575.4045229631142
0.008824744806995652      575.4034872818795
0.008985029143401957      575.4225431787276
0.009144928762683142      575.4634862184776
0.009304571537041926      575.5263164011294
0.009464085956369179      575.6110337266832
0.00962360082072762       575.717638195139
0.009783244929102828      575.8461298064965
0.009943146768167231      575.996508560756
0.010103434204802428      576.1687744579174
0.010294032985212885      576.3680541074507
0.010483984610427306      576.5872384486304
0.01067350371534381       576.8263274814562
0.010862806406064813      577.0853212059286
0.011052109529861487      577.3642196220472
0.011241629932518437      577.6630227298122
0.011431583715703804      577.9817305292235
0.011622185507008923      578.3203430202811
0.011824959091632737      578.6540895121246
0.012026955383669057      578.9805749911632
0.012228431824642762      579.2997994573966
0.01242964785142546       579.6117629108248
0.012630863908182311      579.916465351448
0.012832340438962243      580.213906779266
0.01303433688029038       580.5040871942789
0.013237110673121513      580.7870065964868
0.013439884439981065      581.0400415269469
0.013641880855631786      581.2733740532761
0.013843357360932049      581.4870041754745
0.014044573392309304      581.6809318935419
0.014245789393714157      581.8551572074784
0.014447265809213447      582.0096801172841
0.014649262075581083      582.1445006229588
0.01485203563424549       582.2596187245027
0.015042635756515686      582.3558731970163
0.015232588937700405      582.435144854653
0.015422109593635547      582.4974336974126
0.015611413609866287      582.5427397252952
0.015800717613118194      582.5710629383009
0.01599023823016135       582.5824033364296
0.01618019134667368       582.5767609196812
0.016370791378709844      582.5541356880559
0.016531080055689654      582.5082642984817
0.01669098205584727       582.4590933982084
0.016850625763988217      582.406622987236
0.017010140188576394      582.3508530655646
0.017169654651752998      582.2917836331941
0.017329298475565455      582.2294146901246
0.017489200668197463      582.163746236356
0.01764948961399131       582.0947782718883
0.01780977395039525       581.9930393687067
0.017969673569674088      581.8794048646596
0.018129316344030533      581.7538747597473
0.01828883076335545       581.6164490539695
0.01844834562771156       581.4671277473265
0.01860798973608443       581.3059108398181
0.018767891575146484      581.1327983314445
0.018928179011779317      580.9477902222055
0.019118777792188433      580.6677932815056
0.019308729417401523      580.3652232991545
0.019498248522316707      580.0400802751524
0.019687551213036395      579.692364209499
0.019876854336831753      579.3220751021945
0.02006637473948738       578.9292129532389
0.020256328522671414      578.5137777626322
0.020446930313975188      578.0757695303743
0.02064970389860279       577.547434356118
0.02085170019064286       577.0062850298543
0.02105317663162028       576.4523215515832
0.02125439265840668       575.8855439213048
0.021455608715167235      575.3059521390189
0.02165708524595088       574.7135462047257
0.021859081687282764      574.1083261184252
0.02206185548011769       573.4902918801172
0.022264629246980954      572.8711529422312
0.022466625662635346      572.2645325398981
0.022668102167939252      571.6704306731181
0.022869318199320136      571.088847341891
0.023070534200728618      570.5197825462168
0.023272010616231548      569.9632362860956
0.023474006882602858      569.4192085615273
0.02367678044127098       568.887699372512
0.02386738056353977       568.375092402934
0.024057333744723106      567.8972643725815
0.02424685440065687       567.4542152814541
0.024436158416886237      567.0459451295521
0.02462546242013677       566.6724539168754
0.024814983037178547      566.333741643424
0.025004936153689494      566.0298083091978
0.025195536185724256      565.7606539141971
0.0253558248627017        565.5303445277286
0.025515726862856965      565.329719880735
0.025675370570995573      565.1587799732163
0.02583488499558142       565.0175248051725
0.02599439945875569       564.9059543766036
0.02615404328256581       564.8240686875096
0.026313945475195465      564.7718677378904
0.026474234420986946      564.7493515277462
0.026634518757392422      564.7513863718851
0.02679441837667279       564.7797674870143
0.026954061151030752      564.834494873134
0.02711357557035719       564.9155685302438
0.027273090434714816      565.022988458344
0.027432734543089202      565.1567546574345
0.027592636382152785      565.3168671275154
0.02775292381878715       565.5033258685864
0.02794352259919713       565.7369243888736
0.02813347422441108       566.004301027811
0.028322993329327112      566.3054557853989
0.028512296020047647      566.640388661637
0.02870159914384385       567.0090996565254
0.028891119546500334      567.4115887700643
0.02908107332968523       567.8478560022535
0.029271675120989875      568.317901353093
0.02947444870561504       568.8327730540832
0.029676444997652693      569.3598703819995
0.02987792143862772       569.8991933368422
0.030079137465411736      570.450741918611
0.030280353522169904      571.0145161273061
0.030481830052951155      571.5905159629275
0.030683826494280624      572.178741425475
0.030886600287113104      572.7791925149487
0.03108937405397396       573.3660761015276
0.03129137046962597       573.9460244614864
0.03149284697492751       574.5190375948255
0.03169406300630604       575.0851155015447
0.03189527900771217       575.644258181644
0.03209675542321274       576.1964656351233
0.03229875168958166       576.7417378619828
0.03250152524824737       577.2800748622224
0.03269212537051706       577.719281902448
0.03288207855170127       578.133796405625
0.033071599207635916      578.5236183717536
0.033260903223866156      578.8887478008336
0.033450207227117564      579.2291846928651
0.033639727844160215      579.5449290478481
0.03382968096067204       579.8359808657824
0.034020280992707694      580.1023401466683
0.034180569669686675      580.2911441337558
0.03434047166984347       580.467666681427
0.0345001153779836        580.6319077896821
0.03465962980257096       580.7838674585212
0.03481914426574675       580.9235456879442
0.034978788089558385      581.0509424779509
0.03513869028218957       581.1660578285417
0.035298979227982585      581.2688917397163
