% Model:              brazing.mph
% Version:            COMSOL 5.3.0.223
% Date:               Oct 20 2018, 00:19
% Dimension:          1
% Nodes:              145
% Expressions:        1
% Description:        Line graph
% x                       Height
0                         608.15574905191
1.8037553861809572E-4     608.4121105753921
3.5951128344368776E-4     608.6152209279103
5.377561773732229E-4      608.7650801094649
7.154644111300318E-4      608.8616881200554
8.929933875627798E-4      608.9050449596823
0.0010707015910786408     608.8951506283453
0.0012489464247083767     608.8320051260444
0.0014280820795340731     608.7156084527795
0.0016084574989771061     608.545960608551
0.0017793134314883058     608.4796588356857
0.0019491114898538484     608.3888541801632
0.002118149876008701      608.2735466419841
0.0022867308232763497     608.1337362211483
0.002455159027530182      607.9694229176557
0.0026237400128558564     607.7806067315063
0.0027927784749207734     607.5672876627
0.0029625766466419693     607.3294657112368
0.0031334327293582195     607.067140877117
0.0033042867504275058     606.8928832664706
0.0034740828875811486     606.7134078346347
0.0036431193341009516     606.5287145816103
0.0038116983146850476     606.3388035073966
0.003980124516686077      606.1436746119939
0.004148703455848711      605.9433278954024
0.004317739819749776      605.7377633576217
0.004487535833529769      605.5269809986519
0.004658389691119368      605.3109808184932
0.0048387629974717405     605.1892153611196
0.005017896580971026      605.0721717049129
0.005196139373513023      604.9598498498735
0.0053738455543625        604.8522497960012
0.005551372514551955      604.7493715432959
0.005729078726427549      604.6512150917578
0.005907321580834967      604.5577804413866
0.006086455256670912      604.4690675921826
0.006266828685292636      604.3850765441457
0.0064472042239161545     604.5302938775435
0.0066263399687470585     604.6833842597537
0.00680458486268183       604.8443476907765
0.0069822930964438265     605.0131841706119
0.007159822072881748      605.1898936992598
0.007337530276402798      605.3744762767201
0.007515775110037768      605.566931902993
0.007694910764868775      605.7672605780783
0.007875286184317232      605.9754623019762
0.008046142116827224      606.24304293267
0.008215940175191578      606.5022291772233
0.008384978561345261      606.7530210356363
0.008553559508611747      606.9954185079088
0.008721987712864422      607.2294215940409
0.008890568698188937      607.4550302940326
0.00905960716025268       607.6722446078837
0.009229405331972688      607.8810645355945
0.009400261414687729      608.081490077165
0.009571115435747398      608.3967491743241
0.009740911572891598      608.6826034982968
0.009909948019402086      608.9390530490832
0.010078526999976944      609.1660978266833
0.010246953201968763      609.3637378310972
0.010415532141122159      609.5319730623248
0.010584568505013912      609.6708035203659
0.010754364518784467      609.7802292052206
0.010925218376364454      609.8602501168892
0.011105591682722255      610.0200938750584
0.01128472526622686       610.1344116918789
0.011462968058774099      610.2032035673514
0.011640674239628768      610.2264695014755
0.011818201199823401      610.2042094942514
0.01199590741170419       610.1364235456789
0.012174150266116847      610.023111655758
0.012353283941958112      609.8642738244889
0.012533657370585264      609.6599100518715
0.01271403176453574       609.6255176944939
0.012893166387683227      609.5377004420382
0.013071410176518557      609.3964582945049
0.013249117315197753      609.2017912518938
0.013426645199902413      608.953699314205
0.013604352308338922      608.6521824814383
0.01378259603687098       608.2972407535939
0.013961730570013379      607.8888741306716
0.014142104844781908      607.4270826126717
0.014312959944399205      607.0350916120337
0.014482757184992078      606.6191922000933
0.014651794764271453      606.1793843768507
0.014820374911240972      605.7156681423058
0.014988802317395246      605.2280434964588
0.01515738250242126       604.7165104393093
0.015326420157607648      604.1810689708576
0.015496217511551624      603.6217190911036
0.015667072761367945      603.0384608000473
0.01583792791479403       602.5327624567051
0.016007725163749622      602.0345489819271
0.01617676270725794       601.5438203757137
0.01634534277588875       601.0605766380648
0.016513770062946447      600.5848177689802
0.01668235009015449       600.1165437684602
0.016851387551041475      599.6557546365046
0.017021184676619543      599.2024503731133
0.017192039666560827      598.7566309782867
0.017372413817338207      598.3894316140866
0.017551548228302124      598.0476819031757
0.017729791836073705      597.7313818455547
0.017907498824762332      597.4405314412234
0.018085026590318725      597.1751306901814
0.018262733610032132      596.9351795924293
0.018440977279666457      596.7206781479666
0.018620111782963036      596.5316263567936
0.018800486056004474      596.3680242189101
0.018980860449944497      596.4542257999452
0.019159995073081745      596.5712942683894
0.019338238861906984      596.719229624243
0.01951594600057618       596.8980318675058
0.019693473885270874      597.1077009981777
0.019871180993697383      597.3482370162591
0.020049424722219357      597.6196399217495
0.02022855925535152       597.9219097146491
0.0204089335301096        598.2550463949582
0.02057978862980686       598.649769903934
0.020749585870478253      599.0472755737418
0.020918623449835097      599.4475634043818
0.021087203596881453      599.8506333958536
0.021255631003112355      600.2564855481577
0.021424211188215206      600.6651198612935
0.021593248843479067      601.0765363352616
0.021763046197501558      601.4907349700615
0.02193390144739785       601.9077157656935
0.022104756600747556      602.4663273675303
0.02227455384962815       602.9994993896363
0.02244359139306247       603.5072318320119
0.022612171461619885      603.989524694657
0.022780598748604386      604.4463779775715
0.022949178775739036      604.8777916807554
0.02311821623655202       605.2837658042087
0.023288013362055097      605.6643003479313
0.023458868351919994      606.0193953119236
0.02363924250270423       606.4417345894719
0.023818376913674867      606.817832207077
0.023996620521453065      607.1476881647392
0.02417432751014825       607.4313024624585
0.02435185527571118       607.6686751002347
0.024529562295431146      607.8598060780681
0.02470780596507209       608.0046953959584
0.024886940468375387      608.1033430539056
0.025067314741423676      608.15574905191
