% Model:              brazing.mph
% Version:            COMSOL 5.3.0.223
% Date:               Oct 20 2018, 00:58
% Dimension:          1
% Nodes:              145
% Expressions:        1
% Description:        Line graph
% x                       Height
0                         649.6345463327496
1.8037553861809572E-4     649.8869553223855
3.5951128344368776E-4     650.0870168245896
5.377561773732229E-4      650.2347308393622
7.154644111300318E-4      650.3300973667031
8.929933875627798E-4      650.3731164066122
0.0010707015910786408     650.36378795909
0.0012489464247083767     650.3021120241358
0.0014280820795340731     650.18808860175
0.0016084574989771061     650.0217176919326
0.0017793134314883058     649.9558537214514
0.0019491114898538484     649.8657918592917
0.002118149876008701      649.7515321054535
0.0022867308232763497     649.6130744599369
0.002455159027530182      649.450418922742
0.0026237400128558564     649.2635654938687
0.0027927784749207734     649.0525141733168
0.0029625766466419693     648.8172649610864
0.0031334327293582195     648.5578178571777
0.0033042867504275058     648.3818175026581
0.0034740828875811486     648.201023322433
0.0036431193341009516     648.0154353165024
0.0038116983146850476     647.8250534848663
0.003980124516686077      647.6298778275248
0.004148703455848711      647.4299083444776
0.004317739819749776      647.2251450357251
0.004487535833529769      647.0155879012669
0.004658389691119368      646.8012369411034
0.0048387629974717405     646.6777200554011
0.005017896580971026      646.5598258804652
0.005196139373513023      646.4475544162957
0.0053738455543625        646.3409056628929
0.005551372514551955      646.2398796202565
0.005729078726427549      646.1444762883865
0.005907321580834967      646.054695667283
0.006086455256670912      645.9705377569459
0.006266828685292636      645.8920025573755
0.0064472042239161545     646.0339042551798
0.0066263399687470585     646.1843899348664
0.00680458486268183       646.3434595964359
0.0069822930964438265     646.5111132398878
0.007159822072881748      646.6873508652224
0.007337530276402798      646.8721724724395
0.007515775110037768      647.065578061539
0.007694910764868775      647.2675676325213
0.007875286184317232      647.4781411853861
0.008046142116827224      647.7459828709923
0.008215940175191578      648.005918277526
0.008384978561345261      648.2579474049876
0.008553559508611747      648.5020702533769
0.008721987712864422      648.7382868226938
0.008890568698188937      648.9665971129385
0.00905960716025268       649.187001124111
0.009229405331972688      649.3994988562109
0.009400261414687729      649.6040903092388
0.009571115435747398      649.9180133577681
0.009740911572891598      650.2027772321778
0.009909948019402086      650.458381932468
0.010078526999976944      650.6848274586387
0.010246953201968763      650.8821138106896
0.010415532141122159      651.0502409886212
0.010584568505013912      651.189208992433
0.010754364518784467      651.299017822125
0.010925218376364454      651.3796674776979
0.011105591682722255      651.5381440771424
0.01128472526622686       651.6514413909634
0.011462968058774099      651.7195594191612
0.011640674239628768      651.7424981617355
0.011818201199823401      651.7202576186863
0.01199590741170419       651.6528377900137
0.012174150266116847      651.5402386757178
0.012353283941958112      651.3824602757983
0.012533657370585264      651.1795025902555
0.01271403176453574       651.1370308031776
0.012893166387683227      651.0417814166639
0.013071410176518557      650.8937544307148
0.013249117315197753      650.6929498453304
0.013426645199902413      650.4393676605102
0.013604352308338922      650.1330078762549
0.01378259603687098       649.7738704925637
0.013961730570013379      649.3619555094368
0.014142104844781908      648.8972629268749
0.014312959944399205      648.5012621155386
0.014482757184992078      648.0817098187887
0.014651794764271453      647.6386060366258
0.014820374911240972      647.1719507690495
0.014988802317395246      646.68174401606
0.01515738250242126       646.1679857776571
0.015326420157607648      645.6306760538408
0.015496217511551624      645.0698148446114
0.015667072761367945      644.4854021499688
0.01583792791479403       643.9740838514049
0.016007725163749622      643.470772346645
0.01617676270725794       642.9754676356896
0.01634534277588875       642.4881697185384
0.016513770062946447      642.0088785951914
0.01668235009015449       641.5375942656486
0.016851387551041475      641.07431672991
0.017021184676619543      640.6190459879756
0.017192039666560827      640.1717820398454
0.017372413817338207      639.8003261947664
0.017551548228302124      639.45520230057
0.017729791836073705      639.1364103572568
0.017907498824762332      638.8439503648262
0.018085026590318725      638.5778223232786
0.018262733610032132      638.3380262326139
0.018440977279666457      638.1245620928319
0.018620111782963036      637.9374299039326
0.018800486056004474      637.7766296659164
0.018980860449944497      637.8581621114078
0.019159995073081745      637.9713053849296
0.019338238861906984      638.1160594864822
0.01951594600057618       638.2924244160653
0.019693473885270874      638.500400173679
0.019871180993697383      638.7399867593235
0.020049424722219357      639.0111841729985
0.02022855925535152       639.3139924147042
0.0204089335301096        639.6484114844404
0.02057978862980686       640.0428482184038
0.020749585870478253      640.4408474569481
0.020918623449835097      640.8424092000736
0.021087203596881453      641.2475334477799
0.021255631003112355      641.6562202000673
0.021424211188215206      642.0684694569359
0.021593248843479067      642.4842812183855
0.021763046197501558      642.9036554844158
0.02193390144739785       643.3265922550274
0.022104756600747556      643.8853752016278
0.02227455384962815       644.4191971389373
0.02244359139306247       644.9280580669565
0.022612171461619885      645.4119579856853
0.022780598748604386      645.8708968951235
0.022949178775739036      646.3048747952711
0.02311821623655202       646.713891686128
0.023288013362055097      647.0979475676945
0.023458868351919994      647.4570424399707
0.02363924250270423       647.8817849132868
0.023818376913674867      648.2608279875175
0.023996620521453065      648.5941716626633
0.02417432751014825       648.8818159387238
0.02435185527571118       649.1237608156993
0.024529562295431146      649.3200062935895
0.02470780596507209       649.4705523723946
0.024886940468375387      649.5753990521147
0.025067314741423676      649.6345463327496
