% Model:              brazing.mph
% Version:            COMSOL 5.3.0.223
% Date:               Oct 20 2018, 01:04
% Table:              Table 3 - 
% Time (s)               Temperature (Cp_Al = 929.4, k_Al = 164.4, sigma_Al = 3.6327E7, rho_Al = 2869.1, Cp_inlet = 882, k_inlet = 165.3, sigma_inlet = 3.721E7, rho_inlet = 2599.4, Cp_outlet = 871.6, k_outlet = 162.1, sigma_outlet = 3.5154E7, rho_outlet = 2669.1, Cp_outlet_sleeve = 834.5, k_outlet_sleeve = 158.5, sigma_outlet_sleeve = 4.1371E7, rho_outlet_sleeve = 2704.6, Cp_inlet_sleeve = 878.3, k_inlet_sleeve = 151.5, sigma_inlet_sleeve = 3.4815E7, rho_inlet_sleeve = 2757.1) (degC), Point: 60Temperature (Cp_Al = 929.4, k_Al = 164.4, sigma_Al = 3.6327E7, rho_Al = 2869.1, Cp_inlet = 882, k_inlet = 165.3, sigma_inlet = 3.721E7, rho_inlet = 2599.4, Cp_outlet = 871.6, k_outlet = 162.1, sigma_outlet = 3.5154E7, rho_outlet = 2669.1, Cp_outlet_sleeve = 834.5, k_outlet_sleeve = 158.5, sigma_outlet_sleeve = 4.1371E7, rho_outlet_sleeve = 2704.6, Cp_inlet_sleeve = 878.3, k_inlet_sleeve = 151.5, sigma_inlet_sleeve = 3.4815E7, rho_inlet_sleeve = 2757.1) (degC), Point: 98Temperature (Cp_Al = 929.4, k_Al = 164.4, sigma_Al = 3.6327E7, rho_Al = 2869.1, Cp_inlet = 882, k_inlet = 165.3, sigma_inlet = 3.721E7, rho_inlet = 2599.4, Cp_outlet = 871.6, k_outlet = 162.1, sigma_outlet = 3.5154E7, rho_outlet = 2669.1, Cp_outlet_sleeve = 834.5, k_outlet_sleeve = 158.5, sigma_outlet_sleeve = 4.1371E7, rho_outlet_sleeve = 2704.6, Cp_inlet_sleeve = 878.3, k_inlet_sleeve = 151.5, sigma_inlet_sleeve = 3.4815E7, rho_inlet_sleeve = 2757.1) (degC), Point: 134Temperature (Cp_Al = 929.4, k_Al = 164.4, sigma_Al = 3.6327E7, rho_Al = 2869.1, Cp_inlet = 882, k_inlet = 165.3, sigma_inlet = 3.721E7, rho_inlet = 2599.4, Cp_outlet = 871.6, k_outlet = 162.1, sigma_outlet = 3.5154E7, rho_outlet = 2669.1, Cp_outlet_sleeve = 834.5, k_outlet_sleeve = 158.5, sigma_outlet_sleeve = 4.1371E7, rho_outlet_sleeve = 2704.6, Cp_inlet_sleeve = 878.3, k_inlet_sleeve = 151.5, sigma_inlet_sleeve = 3.4815E7, rho_inlet_sleeve = 2757.1) (degC), Point: 154Temperature (Cp_Al = 929.4, k_Al = 164.4, sigma_Al = 3.6327E7, rho_Al = 2869.1, Cp_inlet = 882, k_inlet = 165.3, sigma_inlet = 3.721E7, rho_inlet = 2599.4, Cp_outlet = 871.6, k_outlet = 162.1, sigma_outlet = 3.5154E7, rho_outlet = 2669.1, Cp_outlet_sleeve = 834.5, k_outlet_sleeve = 158.5, sigma_outlet_sleeve = 4.1371E7, rho_outlet_sleeve = 2704.6, Cp_inlet_sleeve = 878.3, k_inlet_sleeve = 151.5, sigma_inlet_sleeve = 3.4815E7, rho_inlet_sleeve = 2757.1) (degC), Point: 172Temperature (Cp_Al = 929.4, k_Al = 164.4, sigma_Al = 3.6327E7, rho_Al = 2869.1, Cp_inlet = 882, k_inlet = 165.3, sigma_inlet = 3.721E7, rho_inlet = 2599.4, Cp_outlet = 871.6, k_outlet = 162.1, sigma_outlet = 3.5154E7, rho_outlet = 2669.1, Cp_outlet_sleeve = 834.5, k_outlet_sleeve = 158.5, sigma_outlet_sleeve = 4.1371E7, rho_outlet_sleeve = 2704.6, Cp_inlet_sleeve = 878.3, k_inlet_sleeve = 151.5, sigma_inlet_sleeve = 3.4815E7, rho_inlet_sleeve = 2757.1) (degC), Point: 210Temperature (Cp_Al = 929.4, k_Al = 164.4, sigma_Al = 3.6327E7, rho_Al = 2869.1, Cp_inlet = 882, k_inlet = 165.3, sigma_inlet = 3.721E7, rho_inlet = 2599.4, Cp_outlet = 871.6, k_outlet = 162.1, sigma_outlet = 3.5154E7, rho_outlet = 2669.1, Cp_outlet_sleeve = 834.5, k_outlet_sleeve = 158.5, sigma_outlet_sleeve = 4.1371E7, rho_outlet_sleeve = 2704.6, Cp_inlet_sleeve = 878.3, k_inlet_sleeve = 151.5, sigma_inlet_sleeve = 3.4815E7, rho_inlet_sleeve = 2757.1) (degC), Point: 232Temperature (Cp_Al = 929.4, k_Al = 164.4, sigma_Al = 3.6327E7, rho_Al = 2869.1, Cp_inlet = 882, k_inlet = 165.3, sigma_inlet = 3.721E7, rho_inlet = 2599.4, Cp_outlet = 871.6, k_outlet = 162.1, sigma_outlet = 3.5154E7, rho_outlet = 2669.1, Cp_outlet_sleeve = 834.5, k_outlet_sleeve = 158.5, sigma_outlet_sleeve = 4.1371E7, rho_outlet_sleeve = 2704.6, Cp_inlet_sleeve = 878.3, k_inlet_sleeve = 151.5, sigma_inlet_sleeve = 3.4815E7, rho_inlet_sleeve = 2757.1) (degC), Point: 270
0                        21.13072264173951        21.109259425812297       21.024782807500685       21.009656878909027       21.011406424069207       21.001741223552358       21.11988603714883        21.143480622204606
3                        269.60307310600047       276.74122720841376       269.4200938238098        260.46041430482273       233.30771443910447       227.49697483817818       279.2363361238074        271.80882207648744
6                        390.41500249621436       404.8794480564144        397.4648362438186        388.4897175449663        353.15488069648893       347.22862413622306       407.16283861853526       390.44648180266745
9                        462.3741255411892        476.9546584309239        469.4889517972945        460.505716797011         424.4034115891286        418.5849192726025        479.119790897956         461.066076624374
12                       511.76138946899334       524.5857028390468        517.0882180787992        508.10284885268936       473.3717408607797        467.63095431875433       526.6791476312375        509.6778964543206
15                       549.2110348051849        559.8829215265051        552.3642263295417        543.3801458951148        510.55609587583706       504.89349613743855       561.9306427655042        546.6655469914913
18                       579.0214461515467        587.468013035456         579.9351469287973        570.9538181137236        540.1959733175227        534.6104375584068        589.486530504309         576.2059783695661
21                       604.3029179329654        610.6375747504159        603.0948748635682        594.1167511274223        565.3613848928107        559.8485594916214        612.6366636601139        601.3241267179137
24                       626.7009147105414        631.0988944291845        623.5491774661633        614.5742999631703        587.6766803560238        582.2303759723114        633.0846807193116        623.6205675628946
27                       647.132923678002         649.7920016464964        642.2371518861582        633.2653758187896        608.0472662840677        602.6608453049465        651.7684450936725        643.9877098116987
