% Model:              brazing.mph
% Version:            COMSOL 5.3.0.223
% Date:               Oct 20 2018, 02:28
% Table:              Table 3 - 
% Time (s)               Temperature (Cp_Al = 969.8, k_Al = 145.9, sigma_Al = 3.4415E7, rho_Al = 2697.3, Cp_inlet = 952.3, k_inlet = 162.6, sigma_inlet = 3.5221E7, rho_inlet = 2433.6, Cp_outlet = 900.5, k_outlet = 155.4, sigma_outlet = 3.975E7, rho_outlet = 2882.9, Cp_outlet_sleeve = 973.3, k_outlet_sleeve = 162.9, sigma_outlet_sleeve = 3.8584E7, rho_outlet_sleeve = 2695.9, Cp_inlet_sleeve = 844.1, k_inlet_sleeve = 167, sigma_inlet_sleeve = 3.7236E7, rho_inlet_sleeve = 2495.4) (degC), Point: 60Temperature (Cp_Al = 969.8, k_Al = 145.9, sigma_Al = 3.4415E7, rho_Al = 2697.3, Cp_inlet = 952.3, k_inlet = 162.6, sigma_inlet = 3.5221E7, rho_inlet = 2433.6, Cp_outlet = 900.5, k_outlet = 155.4, sigma_outlet = 3.975E7, rho_outlet = 2882.9, Cp_outlet_sleeve = 973.3, k_outlet_sleeve = 162.9, sigma_outlet_sleeve = 3.8584E7, rho_outlet_sleeve = 2695.9, Cp_inlet_sleeve = 844.1, k_inlet_sleeve = 167, sigma_inlet_sleeve = 3.7236E7, rho_inlet_sleeve = 2495.4) (degC), Point: 98Temperature (Cp_Al = 969.8, k_Al = 145.9, sigma_Al = 3.4415E7, rho_Al = 2697.3, Cp_inlet = 952.3, k_inlet = 162.6, sigma_inlet = 3.5221E7, rho_inlet = 2433.6, Cp_outlet = 900.5, k_outlet = 155.4, sigma_outlet = 3.975E7, rho_outlet = 2882.9, Cp_outlet_sleeve = 973.3, k_outlet_sleeve = 162.9, sigma_outlet_sleeve = 3.8584E7, rho_outlet_sleeve = 2695.9, Cp_inlet_sleeve = 844.1, k_inlet_sleeve = 167, sigma_inlet_sleeve = 3.7236E7, rho_inlet_sleeve = 2495.4) (degC), Point: 134Temperature (Cp_Al = 969.8, k_Al = 145.9, sigma_Al = 3.4415E7, rho_Al = 2697.3, Cp_inlet = 952.3, k_inlet = 162.6, sigma_inlet = 3.5221E7, rho_inlet = 2433.6, Cp_outlet = 900.5, k_outlet = 155.4, sigma_outlet = 3.975E7, rho_outlet = 2882.9, Cp_outlet_sleeve = 973.3, k_outlet_sleeve = 162.9, sigma_outlet_sleeve = 3.8584E7, rho_outlet_sleeve = 2695.9, Cp_inlet_sleeve = 844.1, k_inlet_sleeve = 167, sigma_inlet_sleeve = 3.7236E7, rho_inlet_sleeve = 2495.4) (degC), Point: 154Temperature (Cp_Al = 969.8, k_Al = 145.9, sigma_Al = 3.4415E7, rho_Al = 2697.3, Cp_inlet = 952.3, k_inlet = 162.6, sigma_inlet = 3.5221E7, rho_inlet = 2433.6, Cp_outlet = 900.5, k_outlet = 155.4, sigma_outlet = 3.975E7, rho_outlet = 2882.9, Cp_outlet_sleeve = 973.3, k_outlet_sleeve = 162.9, sigma_outlet_sleeve = 3.8584E7, rho_outlet_sleeve = 2695.9, Cp_inlet_sleeve = 844.1, k_inlet_sleeve = 167, sigma_inlet_sleeve = 3.7236E7, rho_inlet_sleeve = 2495.4) (degC), Point: 172Temperature (Cp_Al = 969.8, k_Al = 145.9, sigma_Al = 3.4415E7, rho_Al = 2697.3, Cp_inlet = 952.3, k_inlet = 162.6, sigma_inlet = 3.5221E7, rho_inlet = 2433.6, Cp_outlet = 900.5, k_outlet = 155.4, sigma_outlet = 3.975E7, rho_outlet = 2882.9, Cp_outlet_sleeve = 973.3, k_outlet_sleeve = 162.9, sigma_outlet_sleeve = 3.8584E7, rho_outlet_sleeve = 2695.9, Cp_inlet_sleeve = 844.1, k_inlet_sleeve = 167, sigma_inlet_sleeve = 3.7236E7, rho_inlet_sleeve = 2495.4) (degC), Point: 210Temperature (Cp_Al = 969.8, k_Al = 145.9, sigma_Al = 3.4415E7, rho_Al = 2697.3, Cp_inlet = 952.3, k_inlet = 162.6, sigma_inlet = 3.5221E7, rho_inlet = 2433.6, Cp_outlet = 900.5, k_outlet = 155.4, sigma_outlet = 3.975E7, rho_outlet = 2882.9, Cp_outlet_sleeve = 973.3, k_outlet_sleeve = 162.9, sigma_outlet_sleeve = 3.8584E7, rho_outlet_sleeve = 2695.9, Cp_inlet_sleeve = 844.1, k_inlet_sleeve = 167, sigma_inlet_sleeve = 3.7236E7, rho_inlet_sleeve = 2495.4) (degC), Point: 232Temperature (Cp_Al = 969.8, k_Al = 145.9, sigma_Al = 3.4415E7, rho_Al = 2697.3, Cp_inlet = 952.3, k_inlet = 162.6, sigma_inlet = 3.5221E7, rho_inlet = 2433.6, Cp_outlet = 900.5, k_outlet = 155.4, sigma_outlet = 3.975E7, rho_outlet = 2882.9, Cp_outlet_sleeve = 973.3, k_outlet_sleeve = 162.9, sigma_outlet_sleeve = 3.8584E7, rho_outlet_sleeve = 2695.9, Cp_inlet_sleeve = 844.1, k_inlet_sleeve = 167, sigma_inlet_sleeve = 3.7236E7, rho_inlet_sleeve = 2495.4) (degC), Point: 270
0                        21.130020254068654       21.109027490636777       21.024757134155493       21.009601203717466       21.01134668314785        21.0017435159549         21.11962216006907        21.142693735880925
3                        253.60898608402795       280.850747491573         273.5998417214811        264.8241925716927        216.73935685555682       211.1102126290703        283.24307627833855       255.8278359155479
6                        373.9648326969643        406.00682058692144       398.66443608201416       389.8526454147327        336.18924977846336       330.2910798061881        408.1692734707391        373.9199076193138
9                        449.2842945470966        474.95197116145414       467.55296434395734       458.73391791537495       410.7063564669695        404.9267367055546        476.9853734748626        447.721838906778
12                       501.92207218282886       520.436102933497         512.9996407833186        504.18286692073264       462.83227418008005       457.1533550068327        522.3906916062315        499.4195848016818
15                       542.1719645502036        554.7460369011987        547.2837413255402        538.4714698561252        502.74212415286604       497.1598218737548        556.6488167350791        539.0746629113977
18                       574.1338896333054        581.935665607525         574.455531802395         565.6482644679134        534.476953203517         528.9851302901272        583.8041652951401        570.6655694077268
21                       600.9650277156626        604.9841406773118        597.4913247335961        588.6887110451548        561.1508226133603        555.7405405465054        606.8289863633478        597.2587781332395
24                       624.4766013933232        625.4574754203583        617.9554314199294        609.1569499955303        584.5498264529014        579.211782606848         627.2855063533983        620.6139859727951
27                       645.7271589111765        644.2088674918356        636.6999804819715        627.9051395028899        605.7173191993583        600.4431584352183        646.0246957565447        641.7597893641638
