% Model:              brazing.mph
% Version:            COMSOL 5.3.0.223
% Date:               Oct 20 2018, 00:39
% Table:              Table 3 - 
% Time (s)               Temperature (Cp_Al = 958.7, k_Al = 159.7, sigma_Al = 3.4144E7, rho_Al = 2505, Cp_inlet = 822.5, k_inlet = 167.8, sigma_inlet = 3.4802E7, rho_inlet = 2922.8, Cp_outlet = 966.5, k_outlet = 165.6, sigma_outlet = 3.7869E7, rho_outlet = 2890.3, Cp_outlet_sleeve = 894.1, k_outlet_sleeve = 170.3, sigma_outlet_sleeve = 4.068E7, rho_outlet_sleeve = 2597, Cp_inlet_sleeve = 853.5, k_inlet_sleeve = 161.9, sigma_inlet_sleeve = 4.0743E7, rho_inlet_sleeve = 2717.3) (degC), Point: 60Temperature (Cp_Al = 958.7, k_Al = 159.7, sigma_Al = 3.4144E7, rho_Al = 2505, Cp_inlet = 822.5, k_inlet = 167.8, sigma_inlet = 3.4802E7, rho_inlet = 2922.8, Cp_outlet = 966.5, k_outlet = 165.6, sigma_outlet = 3.7869E7, rho_outlet = 2890.3, Cp_outlet_sleeve = 894.1, k_outlet_sleeve = 170.3, sigma_outlet_sleeve = 4.068E7, rho_outlet_sleeve = 2597, Cp_inlet_sleeve = 853.5, k_inlet_sleeve = 161.9, sigma_inlet_sleeve = 4.0743E7, rho_inlet_sleeve = 2717.3) (degC), Point: 98Temperature (Cp_Al = 958.7, k_Al = 159.7, sigma_Al = 3.4144E7, rho_Al = 2505, Cp_inlet = 822.5, k_inlet = 167.8, sigma_inlet = 3.4802E7, rho_inlet = 2922.8, Cp_outlet = 966.5, k_outlet = 165.6, sigma_outlet = 3.7869E7, rho_outlet = 2890.3, Cp_outlet_sleeve = 894.1, k_outlet_sleeve = 170.3, sigma_outlet_sleeve = 4.068E7, rho_outlet_sleeve = 2597, Cp_inlet_sleeve = 853.5, k_inlet_sleeve = 161.9, sigma_inlet_sleeve = 4.0743E7, rho_inlet_sleeve = 2717.3) (degC), Point: 134Temperature (Cp_Al = 958.7, k_Al = 159.7, sigma_Al = 3.4144E7, rho_Al = 2505, Cp_inlet = 822.5, k_inlet = 167.8, sigma_inlet = 3.4802E7, rho_inlet = 2922.8, Cp_outlet = 966.5, k_outlet = 165.6, sigma_outlet = 3.7869E7, rho_outlet = 2890.3, Cp_outlet_sleeve = 894.1, k_outlet_sleeve = 170.3, sigma_outlet_sleeve = 4.068E7, rho_outlet_sleeve = 2597, Cp_inlet_sleeve = 853.5, k_inlet_sleeve = 161.9, sigma_inlet_sleeve = 4.0743E7, rho_inlet_sleeve = 2717.3) (degC), Point: 154Temperature (Cp_Al = 958.7, k_Al = 159.7, sigma_Al = 3.4144E7, rho_Al = 2505, Cp_inlet = 822.5, k_inlet = 167.8, sigma_inlet = 3.4802E7, rho_inlet = 2922.8, Cp_outlet = 966.5, k_outlet = 165.6, sigma_outlet = 3.7869E7, rho_outlet = 2890.3, Cp_outlet_sleeve = 894.1, k_outlet_sleeve = 170.3, sigma_outlet_sleeve = 4.068E7, rho_outlet_sleeve = 2597, Cp_inlet_sleeve = 853.5, k_inlet_sleeve = 161.9, sigma_inlet_sleeve = 4.0743E7, rho_inlet_sleeve = 2717.3) (degC), Point: 172Temperature (Cp_Al = 958.7, k_Al = 159.7, sigma_Al = 3.4144E7, rho_Al = 2505, Cp_inlet = 822.5, k_inlet = 167.8, sigma_inlet = 3.4802E7, rho_inlet = 2922.8, Cp_outlet = 966.5, k_outlet = 165.6, sigma_outlet = 3.7869E7, rho_outlet = 2890.3, Cp_outlet_sleeve = 894.1, k_outlet_sleeve = 170.3, sigma_outlet_sleeve = 4.068E7, rho_outlet_sleeve = 2597, Cp_inlet_sleeve = 853.5, k_inlet_sleeve = 161.9, sigma_inlet_sleeve = 4.0743E7, rho_inlet_sleeve = 2717.3) (degC), Point: 210Temperature (Cp_Al = 958.7, k_Al = 159.7, sigma_Al = 3.4144E7, rho_Al = 2505, Cp_inlet = 822.5, k_inlet = 167.8, sigma_inlet = 3.4802E7, rho_inlet = 2922.8, Cp_outlet = 966.5, k_outlet = 165.6, sigma_outlet = 3.7869E7, rho_outlet = 2890.3, Cp_outlet_sleeve = 894.1, k_outlet_sleeve = 170.3, sigma_outlet_sleeve = 4.068E7, rho_outlet_sleeve = 2597, Cp_inlet_sleeve = 853.5, k_inlet_sleeve = 161.9, sigma_inlet_sleeve = 4.0743E7, rho_inlet_sleeve = 2717.3) (degC), Point: 232Temperature (Cp_Al = 958.7, k_Al = 159.7, sigma_Al = 3.4144E7, rho_Al = 2505, Cp_inlet = 822.5, k_inlet = 167.8, sigma_inlet = 3.4802E7, rho_inlet = 2922.8, Cp_outlet = 966.5, k_outlet = 165.6, sigma_outlet = 3.7869E7, rho_outlet = 2890.3, Cp_outlet_sleeve = 894.1, k_outlet_sleeve = 170.3, sigma_outlet_sleeve = 4.068E7, rho_outlet_sleeve = 2597, Cp_inlet_sleeve = 853.5, k_inlet_sleeve = 161.9, sigma_inlet_sleeve = 4.0743E7, rho_inlet_sleeve = 2717.3) (degC), Point: 270
0                        21.12989699142264        21.108225431858614       21.02458960336685        21.00950013330828        21.011323857215473       21.001732867143687       21.118732310522944       21.142555051469913
3                        250.67087839018745       268.6754476844234        261.4701411247071        252.97353045493617       215.4474184587482        209.99389501813602       271.0333117826242        252.66643966420054
6                        365.4963648915118        391.565309002508         384.2680654000278        375.75099829698934       329.3402023176942        323.7230864276312        393.7091102706929        365.3227077481812
9                        435.73659293758385       460.7661684472698        453.41835463096004       444.8931251116387        398.8570517808471        393.3363394834796        462.7926670059934        434.18580932484394
12                       484.7406550220825        506.93438282153636       499.55473051859894       491.0285657167618        447.4266801563574        441.97179506602663       508.89033866722536       482.3711653734475
15                       522.1575918457096        541.5016480284997        534.1007766560638        525.5767135534574        484.5661424407788        479.17827587724173       543.4127826115619        519.2902183658789
18                       552.0816702583519        568.8516371518032        561.4366529120332        552.9158375346746        514.3110687120828        508.9908191017163        570.7343029579088        548.9174005197831
21                       577.5142709100754        592.0825863735597        584.6579259490734        576.1405413884448        539.6227348973292        534.3673139537418        593.9464876378338        574.1689178582362
24                       600.0984178051864        612.7910234798699        605.3595818339835        596.8454889682188        562.1223749661632        556.9269129054144        614.6422553965685        596.6412842166194
27                       620.7878294149751        631.8603665507244        624.4240564073276        615.9130166662202        582.750487025529         577.6095872407329        633.7028413441928        617.2607532967633
