% Model:              brazing.mph
% Version:            COMSOL 5.3.0.223
% Date:               Oct 20 2018, 01:44
% Table:              Table 3 - 
% Time (s)               Temperature (Cp_Al = 815.3, k_Al = 161.8, sigma_Al = 4.1155E7, rho_Al = 2633.1, Cp_inlet = 945.2, k_inlet = 162.9, sigma_inlet = 3.9664E7, rho_inlet = 2440.6, Cp_outlet = 963.2, k_outlet = 160.2, sigma_outlet = 4.1329E7, rho_outlet = 2955.1, Cp_outlet_sleeve = 972.5, k_outlet_sleeve = 145.2, sigma_outlet_sleeve = 3.5256E7, rho_outlet_sleeve = 2591.8, Cp_inlet_sleeve = 815.2, k_inlet_sleeve = 161.2, sigma_inlet_sleeve = 4.1293E7, rho_inlet_sleeve = 2695.5) (degC), Point: 60Temperature (Cp_Al = 815.3, k_Al = 161.8, sigma_Al = 4.1155E7, rho_Al = 2633.1, Cp_inlet = 945.2, k_inlet = 162.9, sigma_inlet = 3.9664E7, rho_inlet = 2440.6, Cp_outlet = 963.2, k_outlet = 160.2, sigma_outlet = 4.1329E7, rho_outlet = 2955.1, Cp_outlet_sleeve = 972.5, k_outlet_sleeve = 145.2, sigma_outlet_sleeve = 3.5256E7, rho_outlet_sleeve = 2591.8, Cp_inlet_sleeve = 815.2, k_inlet_sleeve = 161.2, sigma_inlet_sleeve = 4.1293E7, rho_inlet_sleeve = 2695.5) (degC), Point: 98Temperature (Cp_Al = 815.3, k_Al = 161.8, sigma_Al = 4.1155E7, rho_Al = 2633.1, Cp_inlet = 945.2, k_inlet = 162.9, sigma_inlet = 3.9664E7, rho_inlet = 2440.6, Cp_outlet = 963.2, k_outlet = 160.2, sigma_outlet = 4.1329E7, rho_outlet = 2955.1, Cp_outlet_sleeve = 972.5, k_outlet_sleeve = 145.2, sigma_outlet_sleeve = 3.5256E7, rho_outlet_sleeve = 2591.8, Cp_inlet_sleeve = 815.2, k_inlet_sleeve = 161.2, sigma_inlet_sleeve = 4.1293E7, rho_inlet_sleeve = 2695.5) (degC), Point: 134Temperature (Cp_Al = 815.3, k_Al = 161.8, sigma_Al = 4.1155E7, rho_Al = 2633.1, Cp_inlet = 945.2, k_inlet = 162.9, sigma_inlet = 3.9664E7, rho_inlet = 2440.6, Cp_outlet = 963.2, k_outlet = 160.2, sigma_outlet = 4.1329E7, rho_outlet = 2955.1, Cp_outlet_sleeve = 972.5, k_outlet_sleeve = 145.2, sigma_outlet_sleeve = 3.5256E7, rho_outlet_sleeve = 2591.8, Cp_inlet_sleeve = 815.2, k_inlet_sleeve = 161.2, sigma_inlet_sleeve = 4.1293E7, rho_inlet_sleeve = 2695.5) (degC), Point: 154Temperature (Cp_Al = 815.3, k_Al = 161.8, sigma_Al = 4.1155E7, rho_Al = 2633.1, Cp_inlet = 945.2, k_inlet = 162.9, sigma_inlet = 3.9664E7, rho_inlet = 2440.6, Cp_outlet = 963.2, k_outlet = 160.2, sigma_outlet = 4.1329E7, rho_outlet = 2955.1, Cp_outlet_sleeve = 972.5, k_outlet_sleeve = 145.2, sigma_outlet_sleeve = 3.5256E7, rho_outlet_sleeve = 2591.8, Cp_inlet_sleeve = 815.2, k_inlet_sleeve = 161.2, sigma_inlet_sleeve = 4.1293E7, rho_inlet_sleeve = 2695.5) (degC), Point: 172Temperature (Cp_Al = 815.3, k_Al = 161.8, sigma_Al = 4.1155E7, rho_Al = 2633.1, Cp_inlet = 945.2, k_inlet = 162.9, sigma_inlet = 3.9664E7, rho_inlet = 2440.6, Cp_outlet = 963.2, k_outlet = 160.2, sigma_outlet = 4.1329E7, rho_outlet = 2955.1, Cp_outlet_sleeve = 972.5, k_outlet_sleeve = 145.2, sigma_outlet_sleeve = 3.5256E7, rho_outlet_sleeve = 2591.8, Cp_inlet_sleeve = 815.2, k_inlet_sleeve = 161.2, sigma_inlet_sleeve = 4.1293E7, rho_inlet_sleeve = 2695.5) (degC), Point: 210Temperature (Cp_Al = 815.3, k_Al = 161.8, sigma_Al = 4.1155E7, rho_Al = 2633.1, Cp_inlet = 945.2, k_inlet = 162.9, sigma_inlet = 3.9664E7, rho_inlet = 2440.6, Cp_outlet = 963.2, k_outlet = 160.2, sigma_outlet = 4.1329E7, rho_outlet = 2955.1, Cp_outlet_sleeve = 972.5, k_outlet_sleeve = 145.2, sigma_outlet_sleeve = 3.5256E7, rho_outlet_sleeve = 2591.8, Cp_inlet_sleeve = 815.2, k_inlet_sleeve = 161.2, sigma_inlet_sleeve = 4.1293E7, rho_inlet_sleeve = 2695.5) (degC), Point: 232Temperature (Cp_Al = 815.3, k_Al = 161.8, sigma_Al = 4.1155E7, rho_Al = 2633.1, Cp_inlet = 945.2, k_inlet = 162.9, sigma_inlet = 3.9664E7, rho_inlet = 2440.6, Cp_outlet = 963.2, k_outlet = 160.2, sigma_outlet = 4.1329E7, rho_outlet = 2955.1, Cp_outlet_sleeve = 972.5, k_outlet_sleeve = 145.2, sigma_outlet_sleeve = 3.5256E7, rho_outlet_sleeve = 2591.8, Cp_inlet_sleeve = 815.2, k_inlet_sleeve = 161.2, sigma_inlet_sleeve = 4.1293E7, rho_inlet_sleeve = 2695.5) (degC), Point: 270
0                        21.13062603596319        21.107063230926997       21.024291313292224       21.00945418912636        21.011455116342518       21.001760056552143       21.117452977122298       21.143350554964684
3                        255.26149904275474       271.76482162874777       264.56536751306294       256.0568374359219        217.30416989291814       211.73664918625212       274.1299966178898        257.62404773619016
6                        379.06642547787635       393.548797882234         386.25964221376773       377.73004722585154       340.3045383146015        334.41417626525515       395.70343079880104       379.29363846916544
9                        457.4024684074376        460.750128580353         453.41112916480984       444.87738543612306       417.9056555550735        412.11575101987376       462.79278144382124       456.23112453976796
12                       512.4258838707635        505.11350887734477       497.74284199166425       489.21246009583956       472.47433848586604       466.76478896378296       507.09029348049523       510.4110591396235
15                       554.5905911091813        538.7117061042966        531.3197303950245        522.7946055656417        514.3450585111618        508.7148252012271        540.6467321655848        552.0575505427735
18                       588.1714165127011        565.5683377231989        558.162212716695         549.6425686573339        547.7358468631386        542.1837920160718        567.4771647248737        585.3306475136391
21                       616.463485647941         588.6022992634192        581.18659445521          572.6719152189347        575.9014575816844        570.4229448313993        590.4942018644998        613.4396691161263
24                       641.3663574319573        609.3178648376438        601.8955597587488        593.3852214446835        600.7180716428554        595.3066242067758        611.1986199931754        638.2347123676499
27                       663.9980609436456        628.5200329993551        621.0930891049612        612.5865343656144        623.2892971662023        617.9382821764701        630.393330672606         660.8043197204911
