% Model:              brazing.mph
% Version:            COMSOL 5.3.0.223
% Date:               Oct 20 2018, 01:59
% Table:              Table 3 - 
% Time (s)               Temperature (Cp_Al = 866.3, k_Al = 167.8, sigma_Al = 3.4712E7, rho_Al = 2924.9, Cp_inlet = 904.9, k_inlet = 168.5, sigma_inlet = 3.6346E7, rho_inlet = 2538.6, Cp_outlet = 974.9, k_outlet = 146.9, sigma_outlet = 3.5822E7, rho_outlet = 2766, Cp_outlet_sleeve = 971.8, k_outlet_sleeve = 152.1, sigma_outlet_sleeve = 3.7027E7, rho_outlet_sleeve = 2871.9, Cp_inlet_sleeve = 859.1, k_inlet_sleeve = 148.4, sigma_inlet_sleeve = 3.4205E7, rho_inlet_sleeve = 2564.8) (degC), Point: 60Temperature (Cp_Al = 866.3, k_Al = 167.8, sigma_Al = 3.4712E7, rho_Al = 2924.9, Cp_inlet = 904.9, k_inlet = 168.5, sigma_inlet = 3.6346E7, rho_inlet = 2538.6, Cp_outlet = 974.9, k_outlet = 146.9, sigma_outlet = 3.5822E7, rho_outlet = 2766, Cp_outlet_sleeve = 971.8, k_outlet_sleeve = 152.1, sigma_outlet_sleeve = 3.7027E7, rho_outlet_sleeve = 2871.9, Cp_inlet_sleeve = 859.1, k_inlet_sleeve = 148.4, sigma_inlet_sleeve = 3.4205E7, rho_inlet_sleeve = 2564.8) (degC), Point: 98Temperature (Cp_Al = 866.3, k_Al = 167.8, sigma_Al = 3.4712E7, rho_Al = 2924.9, Cp_inlet = 904.9, k_inlet = 168.5, sigma_inlet = 3.6346E7, rho_inlet = 2538.6, Cp_outlet = 974.9, k_outlet = 146.9, sigma_outlet = 3.5822E7, rho_outlet = 2766, Cp_outlet_sleeve = 971.8, k_outlet_sleeve = 152.1, sigma_outlet_sleeve = 3.7027E7, rho_outlet_sleeve = 2871.9, Cp_inlet_sleeve = 859.1, k_inlet_sleeve = 148.4, sigma_inlet_sleeve = 3.4205E7, rho_inlet_sleeve = 2564.8) (degC), Point: 134Temperature (Cp_Al = 866.3, k_Al = 167.8, sigma_Al = 3.4712E7, rho_Al = 2924.9, Cp_inlet = 904.9, k_inlet = 168.5, sigma_inlet = 3.6346E7, rho_inlet = 2538.6, Cp_outlet = 974.9, k_outlet = 146.9, sigma_outlet = 3.5822E7, rho_outlet = 2766, Cp_outlet_sleeve = 971.8, k_outlet_sleeve = 152.1, sigma_outlet_sleeve = 3.7027E7, rho_outlet_sleeve = 2871.9, Cp_inlet_sleeve = 859.1, k_inlet_sleeve = 148.4, sigma_inlet_sleeve = 3.4205E7, rho_inlet_sleeve = 2564.8) (degC), Point: 154Temperature (Cp_Al = 866.3, k_Al = 167.8, sigma_Al = 3.4712E7, rho_Al = 2924.9, Cp_inlet = 904.9, k_inlet = 168.5, sigma_inlet = 3.6346E7, rho_inlet = 2538.6, Cp_outlet = 974.9, k_outlet = 146.9, sigma_outlet = 3.5822E7, rho_outlet = 2766, Cp_outlet_sleeve = 971.8, k_outlet_sleeve = 152.1, sigma_outlet_sleeve = 3.7027E7, rho_outlet_sleeve = 2871.9, Cp_inlet_sleeve = 859.1, k_inlet_sleeve = 148.4, sigma_inlet_sleeve = 3.4205E7, rho_inlet_sleeve = 2564.8) (degC), Point: 172Temperature (Cp_Al = 866.3, k_Al = 167.8, sigma_Al = 3.4712E7, rho_Al = 2924.9, Cp_inlet = 904.9, k_inlet = 168.5, sigma_inlet = 3.6346E7, rho_inlet = 2538.6, Cp_outlet = 974.9, k_outlet = 146.9, sigma_outlet = 3.5822E7, rho_outlet = 2766, Cp_outlet_sleeve = 971.8, k_outlet_sleeve = 152.1, sigma_outlet_sleeve = 3.7027E7, rho_outlet_sleeve = 2871.9, Cp_inlet_sleeve = 859.1, k_inlet_sleeve = 148.4, sigma_inlet_sleeve = 3.4205E7, rho_inlet_sleeve = 2564.8) (degC), Point: 210Temperature (Cp_Al = 866.3, k_Al = 167.8, sigma_Al = 3.4712E7, rho_Al = 2924.9, Cp_inlet = 904.9, k_inlet = 168.5, sigma_inlet = 3.6346E7, rho_inlet = 2538.6, Cp_outlet = 974.9, k_outlet = 146.9, sigma_outlet = 3.5822E7, rho_outlet = 2766, Cp_outlet_sleeve = 971.8, k_outlet_sleeve = 152.1, sigma_outlet_sleeve = 3.7027E7, rho_outlet_sleeve = 2871.9, Cp_inlet_sleeve = 859.1, k_inlet_sleeve = 148.4, sigma_inlet_sleeve = 3.4205E7, rho_inlet_sleeve = 2564.8) (degC), Point: 232Temperature (Cp_Al = 866.3, k_Al = 167.8, sigma_Al = 3.4712E7, rho_Al = 2924.9, Cp_inlet = 904.9, k_inlet = 168.5, sigma_inlet = 3.6346E7, rho_inlet = 2538.6, Cp_outlet = 974.9, k_outlet = 146.9, sigma_outlet = 3.5822E7, rho_outlet = 2766, Cp_outlet_sleeve = 971.8, k_outlet_sleeve = 152.1, sigma_outlet_sleeve = 3.7027E7, rho_outlet_sleeve = 2871.9, Cp_inlet_sleeve = 859.1, k_inlet_sleeve = 148.4, sigma_inlet_sleeve = 3.4205E7, rho_inlet_sleeve = 2564.8) (degC), Point: 270
0                        21.13166816079115        21.109624393436775       21.024870811648213       21.009677088741          21.011508221144766       21.001758023441198       21.120287447328963       21.144539823917455
3                        254.25094465844484       284.48631121364826       277.16413476468904       268.18718913724206       215.2589332930258        209.23763848116954       286.9735700006396        256.95043004729575
6                        377.9801366728137        414.6434433274537        407.23480791893087       398.23268815567735       338.22091264898904       331.7815756296835        416.9229800980513        378.5042071472317
9                        456.1875732090749        486.33228314177984       478.8739356139855        469.86729867524116       415.64671111708515       409.32407078734036       488.4996335283232        455.22998053653566
12                       510.4681471133397        532.8545194069169        525.3645354254588        516.3608525421489        469.4329002583273        463.2050996993087        534.955471876362         508.60124789959093
15                       551.8620044862683        567.8641589902797        560.352624921045         551.3538617539851        510.50289205122556       504.3617597340377        569.9223170992142        549.4234022826947
18                       584.6165957931279        595.6215249703558        588.0954546773221        579.1018741400281        543.0445167908623        536.9849376142362        597.652182806013         581.8268635662943
21                       611.9326002011755        619.1247651715938        611.5887324942436        602.5998875230363        570.2168793715274        564.232123519307         621.1372820454402        608.926008275646
24                       635.7389773696565        640.0073891920348        632.464423456111         623.4797227982315        593.9240045441684        588.0064624923502        642.0076870343233        632.598134960552
27                       657.1880474358471        659.1576761925006        651.609812004161         642.6287080105013        615.3027844968994        609.4451794027884        661.1496155817177        653.9645201102161
