% Model:              brazing.mph
% Version:            COMSOL 5.3.0.223
% Date:               Oct 20 2018, 02:31
% Table:              Table 3 - 
% Time (s)               Temperature (Cp_Al = 819.5, k_Al = 170, sigma_Al = 4.0876E7, rho_Al = 2475.5, Cp_inlet = 964.8, k_inlet = 165.1, sigma_inlet = 3.4238E7, rho_inlet = 2786.3, Cp_outlet = 846, k_outlet = 149.3, sigma_outlet = 3.9444E7, rho_outlet = 2637.6, Cp_outlet_sleeve = 819.4, k_outlet_sleeve = 152, sigma_outlet_sleeve = 3.7863E7, rho_outlet_sleeve = 2850, Cp_inlet_sleeve = 967.6, k_inlet_sleeve = 172.1, sigma_inlet_sleeve = 4.0776E7, rho_inlet_sleeve = 2462.5) (degC), Point: 60Temperature (Cp_Al = 819.5, k_Al = 170, sigma_Al = 4.0876E7, rho_Al = 2475.5, Cp_inlet = 964.8, k_inlet = 165.1, sigma_inlet = 3.4238E7, rho_inlet = 2786.3, Cp_outlet = 846, k_outlet = 149.3, sigma_outlet = 3.9444E7, rho_outlet = 2637.6, Cp_outlet_sleeve = 819.4, k_outlet_sleeve = 152, sigma_outlet_sleeve = 3.7863E7, rho_outlet_sleeve = 2850, Cp_inlet_sleeve = 967.6, k_inlet_sleeve = 172.1, sigma_inlet_sleeve = 4.0776E7, rho_inlet_sleeve = 2462.5) (degC), Point: 98Temperature (Cp_Al = 819.5, k_Al = 170, sigma_Al = 4.0876E7, rho_Al = 2475.5, Cp_inlet = 964.8, k_inlet = 165.1, sigma_inlet = 3.4238E7, rho_inlet = 2786.3, Cp_outlet = 846, k_outlet = 149.3, sigma_outlet = 3.9444E7, rho_outlet = 2637.6, Cp_outlet_sleeve = 819.4, k_outlet_sleeve = 152, sigma_outlet_sleeve = 3.7863E7, rho_outlet_sleeve = 2850, Cp_inlet_sleeve = 967.6, k_inlet_sleeve = 172.1, sigma_inlet_sleeve = 4.0776E7, rho_inlet_sleeve = 2462.5) (degC), Point: 134Temperature (Cp_Al = 819.5, k_Al = 170, sigma_Al = 4.0876E7, rho_Al = 2475.5, Cp_inlet = 964.8, k_inlet = 165.1, sigma_inlet = 3.4238E7, rho_inlet = 2786.3, Cp_outlet = 846, k_outlet = 149.3, sigma_outlet = 3.9444E7, rho_outlet = 2637.6, Cp_outlet_sleeve = 819.4, k_outlet_sleeve = 152, sigma_outlet_sleeve = 3.7863E7, rho_outlet_sleeve = 2850, Cp_inlet_sleeve = 967.6, k_inlet_sleeve = 172.1, sigma_inlet_sleeve = 4.0776E7, rho_inlet_sleeve = 2462.5) (degC), Point: 154Temperature (Cp_Al = 819.5, k_Al = 170, sigma_Al = 4.0876E7, rho_Al = 2475.5, Cp_inlet = 964.8, k_inlet = 165.1, sigma_inlet = 3.4238E7, rho_inlet = 2786.3, Cp_outlet = 846, k_outlet = 149.3, sigma_outlet = 3.9444E7, rho_outlet = 2637.6, Cp_outlet_sleeve = 819.4, k_outlet_sleeve = 152, sigma_outlet_sleeve = 3.7863E7, rho_outlet_sleeve = 2850, Cp_inlet_sleeve = 967.6, k_inlet_sleeve = 172.1, sigma_inlet_sleeve = 4.0776E7, rho_inlet_sleeve = 2462.5) (degC), Point: 172Temperature (Cp_Al = 819.5, k_Al = 170, sigma_Al = 4.0876E7, rho_Al = 2475.5, Cp_inlet = 964.8, k_inlet = 165.1, sigma_inlet = 3.4238E7, rho_inlet = 2786.3, Cp_outlet = 846, k_outlet = 149.3, sigma_outlet = 3.9444E7, rho_outlet = 2637.6, Cp_outlet_sleeve = 819.4, k_outlet_sleeve = 152, sigma_outlet_sleeve = 3.7863E7, rho_outlet_sleeve = 2850, Cp_inlet_sleeve = 967.6, k_inlet_sleeve = 172.1, sigma_inlet_sleeve = 4.0776E7, rho_inlet_sleeve = 2462.5) (degC), Point: 210Temperature (Cp_Al = 819.5, k_Al = 170, sigma_Al = 4.0876E7, rho_Al = 2475.5, Cp_inlet = 964.8, k_inlet = 165.1, sigma_inlet = 3.4238E7, rho_inlet = 2786.3, Cp_outlet = 846, k_outlet = 149.3, sigma_outlet = 3.9444E7, rho_outlet = 2637.6, Cp_outlet_sleeve = 819.4, k_outlet_sleeve = 152, sigma_outlet_sleeve = 3.7863E7, rho_outlet_sleeve = 2850, Cp_inlet_sleeve = 967.6, k_inlet_sleeve = 172.1, sigma_inlet_sleeve = 4.0776E7, rho_inlet_sleeve = 2462.5) (degC), Point: 232Temperature (Cp_Al = 819.5, k_Al = 170, sigma_Al = 4.0876E7, rho_Al = 2475.5, Cp_inlet = 964.8, k_inlet = 165.1, sigma_inlet = 3.4238E7, rho_inlet = 2786.3, Cp_outlet = 846, k_outlet = 149.3, sigma_outlet = 3.9444E7, rho_outlet = 2637.6, Cp_outlet_sleeve = 819.4, k_outlet_sleeve = 152, sigma_outlet_sleeve = 3.7863E7, rho_outlet_sleeve = 2850, Cp_inlet_sleeve = 967.6, k_inlet_sleeve = 172.1, sigma_inlet_sleeve = 4.0776E7, rho_inlet_sleeve = 2462.5) (degC), Point: 270
0                        21.130499542265568       21.108366017066885       21.024637944020128       21.00953448926265        21.01142208902968        21.00175594321871        21.118877679373213       21.14322106336823
3                        277.10331441991855       256.0887705639799        248.89082203705493       240.47157267037585       238.61697428271395       232.76712437179054       258.42315891366843       279.32966369357234
6                        403.9653251046984        374.19971115160604       366.9038498227086        358.476759876566         364.4899063879267        358.5225043028537        376.3203333920968        403.9414953739922
9                        480.0056971758422        441.32751376648775       433.9812574601964        425.5492519300981        439.80297550079354       433.97714884390314       443.3342417530091        478.6435230445868
12                       532.0871523709596        486.4333301372727        479.05695592535653       470.62457590401664       491.47341296583954       485.73745186484337       488.37345135165344       529.9786433657251
15                       571.6625723018798        520.6572012721049        513.2614246989998        504.8310337339044        530.798096582384         525.1437368079105        522.5560462706359        569.1254977769978
18                       603.2661515067599        548.0487513170394        540.6406863403129        532.2131526180713        562.2488936416206        556.671316228589         549.9224826227202        600.4952021258212
21                       630.2158751699656        571.5402443096829        564.1241842823817        555.6996964159597        589.1011121998672        583.5945776948342        573.3983321598888        627.3178796763834
24                       654.2759606615028        592.6707636440287        585.2493794141249        576.8278924443817        613.0963860955866        607.654052513849         594.5189728383351        651.3106283937473
27                       676.4192680966936        612.2964094167386        604.8713842379746        596.4527517444418        635.1946458912525        629.8095391930035        614.138292110747         673.419836964233
