% Model:              brazing.mph
% Version:            COMSOL 5.3.0.223
% Date:               Oct 20 2018, 01:48
% Table:              Table 3 - 
% Time (s)               Temperature (Cp_Al = 876.2, k_Al = 157.8, sigma_Al = 3.5053E7, rho_Al = 2782.5, Cp_inlet = 948.1, k_inlet = 159, sigma_inlet = 4.1303E7, rho_inlet = 2773.2, Cp_outlet = 880, k_outlet = 166.1, sigma_outlet = 3.5272E7, rho_outlet = 2854.7, Cp_outlet_sleeve = 965, k_outlet_sleeve = 156.3, sigma_outlet_sleeve = 3.4929E7, rho_outlet_sleeve = 2849.7, Cp_inlet_sleeve = 886.9, k_inlet_sleeve = 156.6, sigma_inlet_sleeve = 3.9557E7, rho_inlet_sleeve = 2774.1) (degC), Point: 60Temperature (Cp_Al = 876.2, k_Al = 157.8, sigma_Al = 3.5053E7, rho_Al = 2782.5, Cp_inlet = 948.1, k_inlet = 159, sigma_inlet = 4.1303E7, rho_inlet = 2773.2, Cp_outlet = 880, k_outlet = 166.1, sigma_outlet = 3.5272E7, rho_outlet = 2854.7, Cp_outlet_sleeve = 965, k_outlet_sleeve = 156.3, sigma_outlet_sleeve = 3.4929E7, rho_outlet_sleeve = 2849.7, Cp_inlet_sleeve = 886.9, k_inlet_sleeve = 156.6, sigma_inlet_sleeve = 3.9557E7, rho_inlet_sleeve = 2774.1) (degC), Point: 98Temperature (Cp_Al = 876.2, k_Al = 157.8, sigma_Al = 3.5053E7, rho_Al = 2782.5, Cp_inlet = 948.1, k_inlet = 159, sigma_inlet = 4.1303E7, rho_inlet = 2773.2, Cp_outlet = 880, k_outlet = 166.1, sigma_outlet = 3.5272E7, rho_outlet = 2854.7, Cp_outlet_sleeve = 965, k_outlet_sleeve = 156.3, sigma_outlet_sleeve = 3.4929E7, rho_outlet_sleeve = 2849.7, Cp_inlet_sleeve = 886.9, k_inlet_sleeve = 156.6, sigma_inlet_sleeve = 3.9557E7, rho_inlet_sleeve = 2774.1) (degC), Point: 134Temperature (Cp_Al = 876.2, k_Al = 157.8, sigma_Al = 3.5053E7, rho_Al = 2782.5, Cp_inlet = 948.1, k_inlet = 159, sigma_inlet = 4.1303E7, rho_inlet = 2773.2, Cp_outlet = 880, k_outlet = 166.1, sigma_outlet = 3.5272E7, rho_outlet = 2854.7, Cp_outlet_sleeve = 965, k_outlet_sleeve = 156.3, sigma_outlet_sleeve = 3.4929E7, rho_outlet_sleeve = 2849.7, Cp_inlet_sleeve = 886.9, k_inlet_sleeve = 156.6, sigma_inlet_sleeve = 3.9557E7, rho_inlet_sleeve = 2774.1) (degC), Point: 154Temperature (Cp_Al = 876.2, k_Al = 157.8, sigma_Al = 3.5053E7, rho_Al = 2782.5, Cp_inlet = 948.1, k_inlet = 159, sigma_inlet = 4.1303E7, rho_inlet = 2773.2, Cp_outlet = 880, k_outlet = 166.1, sigma_outlet = 3.5272E7, rho_outlet = 2854.7, Cp_outlet_sleeve = 965, k_outlet_sleeve = 156.3, sigma_outlet_sleeve = 3.4929E7, rho_outlet_sleeve = 2849.7, Cp_inlet_sleeve = 886.9, k_inlet_sleeve = 156.6, sigma_inlet_sleeve = 3.9557E7, rho_inlet_sleeve = 2774.1) (degC), Point: 172Temperature (Cp_Al = 876.2, k_Al = 157.8, sigma_Al = 3.5053E7, rho_Al = 2782.5, Cp_inlet = 948.1, k_inlet = 159, sigma_inlet = 4.1303E7, rho_inlet = 2773.2, Cp_outlet = 880, k_outlet = 166.1, sigma_outlet = 3.5272E7, rho_outlet = 2854.7, Cp_outlet_sleeve = 965, k_outlet_sleeve = 156.3, sigma_outlet_sleeve = 3.4929E7, rho_outlet_sleeve = 2849.7, Cp_inlet_sleeve = 886.9, k_inlet_sleeve = 156.6, sigma_inlet_sleeve = 3.9557E7, rho_inlet_sleeve = 2774.1) (degC), Point: 210Temperature (Cp_Al = 876.2, k_Al = 157.8, sigma_Al = 3.5053E7, rho_Al = 2782.5, Cp_inlet = 948.1, k_inlet = 159, sigma_inlet = 4.1303E7, rho_inlet = 2773.2, Cp_outlet = 880, k_outlet = 166.1, sigma_outlet = 3.5272E7, rho_outlet = 2854.7, Cp_outlet_sleeve = 965, k_outlet_sleeve = 156.3, sigma_outlet_sleeve = 3.4929E7, rho_outlet_sleeve = 2849.7, Cp_inlet_sleeve = 886.9, k_inlet_sleeve = 156.6, sigma_inlet_sleeve = 3.9557E7, rho_inlet_sleeve = 2774.1) (degC), Point: 232Temperature (Cp_Al = 876.2, k_Al = 157.8, sigma_Al = 3.5053E7, rho_Al = 2782.5, Cp_inlet = 948.1, k_inlet = 159, sigma_inlet = 4.1303E7, rho_inlet = 2773.2, Cp_outlet = 880, k_outlet = 166.1, sigma_outlet = 3.5272E7, rho_outlet = 2854.7, Cp_outlet_sleeve = 965, k_outlet_sleeve = 156.3, sigma_outlet_sleeve = 3.4929E7, rho_outlet_sleeve = 2849.7, Cp_inlet_sleeve = 886.9, k_inlet_sleeve = 156.6, sigma_inlet_sleeve = 3.9557E7, rho_inlet_sleeve = 2774.1) (degC), Point: 270
0                        21.132611770438018       21.107072590855353       21.024277408076784       21.009443313536508       21.011615994071974       21.001773385403567       21.117475172089485       21.145589612677952
3                        258.46231965027414       256.99721083595387       249.73602519739904       240.99261478180233       221.49471521347357       215.7632792830242        259.444214537555         260.651550509406
6                        382.5983181971276        381.1121280353875        373.7540456517314        364.9918098916239        344.7188925888464        338.77589006606513       383.3376000502882        382.59261615999344
9                        460.1429817141934        452.8446568090254        445.4296273669646        436.66456606705265       421.49326634014403       415.70696998462245       454.9455421351173        458.72417385797064
12                       513.7803430761331        500.31004933207544       492.85975075858755       484.09503063392924       474.6616680594194        468.98695247986007       502.3347612817197        511.5197011833593
15                       554.9251729609491        536.1178860033939        528.6434275397075        519.8816144289008        515.5022944366286        509.92568082201296       538.0926263253162        552.1440747623514
18                       587.9019510815386        564.5397420816748        557.0487229084174        548.2906347744633        548.2788412478928        542.792273031919         566.4815364300514        584.8039562179832
21                       615.7146360294463        588.4387910009157        580.9361803223533        572.1819492459726        575.9552372223095        570.5508673203809        590.3583982795099        612.4220264021878
24                       640.1815328426956        609.5026120140744        601.9917069922027        593.2412131711988        600.3259540646822        594.9957642794876        611.406981278298         636.767893036667
27                       662.3652040809249        628.7046528286785        621.1876970359996        612.4407272659852        622.4394127435969        617.17571089438          630.5983998615372        658.8756560425435
