% Model:              brazing.mph
% Version:            COMSOL 5.3.0.223
% Date:               Oct 20 2018, 00:13
% Dimension:          1
% Nodes:              161
% Expressions:        1
% Description:        Line graph
% x                       Height
0                         627.7911391774356
1.9693985890610136E-4     627.7524958054416
3.9298030043864816E-4     627.7257809904008
5.884188308682271E-4      627.7109947323133
7.835557095112735E-4      627.708137031179
9.786925881542028E-4      627.7172078869979
0.0011741311185834375     627.7382072997701
0.0013701715601154056     627.7711352694955
0.0015671114190207022     627.8159917961741
0.0017642608961497635     627.5791231390158
0.0019605081241513326     627.3382637924915
0.0021561515411346144     627.0934137566013
0.002351492352702621      626.8445730313452
0.0025468331642698894     626.5917416167233
0.0027424765812509564     626.3349195127354
0.0029387238092488436     626.0741067193817
0.0031358732863727766     625.809303236662
0.0033326885608882563     625.4458781581737
0.0035286060983021257     625.0868283792755
0.0037239228519497995     624.7321538999672
0.003918938519653848      624.3818547202488
0.004113954187357973      624.0359308401205
0.004309270941005876      623.6943822595821
0.004505188478420127      623.3572089786337
0.004702003752936137      623.0244109972753
0.004899138702461749      622.6817298113356
0.005095371599302965      622.3548932915394
0.005291000816927052      622.0439014378868
0.005486327495291825      621.7487542503777
0.005681654173656831      621.4694517290122
0.0058772833912816074     621.2059938737902
0.0060735162881239745     620.9583806847119
0.006270651237651189      620.7266121617771
0.006467582778148322      620.5523849326557
0.006663615013526554      620.4105662285331
0.006859045413116663      620.3011560494093
0.0070541741987231454     620.2241543952841
0.007249302984329781      620.1795612661577
0.007444733383920351      620.16737666203
0.007640765619299351      620.1876005829012
0.007837697159797551      620.240233028771
0.008034634474091872      620.2336537332288
0.008230672405352359      620.2637512136303
0.008426108448549354      620.330525469975
0.008621242851524007      620.433976502263
0.008816377254498534      620.5741043104944
0.009011813297695145      620.7509088946691
0.009207851228955002      620.9643902547872
0.00940478854324844       621.2145483908486
0.00960192671152544       621.5273064529916
0.00979816278359587       621.8543658962923
0.009993795147248338      622.1957267207507
0.010189124956984269      622.5513889263665
0.010384454766719743      622.9213525131399
0.010580087130370853      623.305617481071
0.010776323202439026      623.7041838301595
0.01097346137071288       624.1170515604058
0.011170281912174305      624.4880155033817
0.011366204645540166      624.8684816711506
0.011561526547508357      625.2584500637126
0.011756547339625332      625.6579206810677
0.011951568131742307      626.0668935232158
0.0121468900337105        626.485368590157
0.012342812767076368      626.9133458818912
0.0125396333085378        627.3508253984186
0.012736771215691979      627.6375207284226
0.012933007030171178      627.9223740950264
0.013128639138602195      628.2053854982297
0.013323968694306592      628.4865549380326
0.013519298250011432      628.7658824144349
0.013714930358443784      629.043367927437
0.0139111661729252        629.3190114770385
0.014108304080082462      629.5928130632396
0.014305241249097643      629.5867325037109
0.014501279037039759      629.5845912689989
0.014696714938233999      629.5863893591039
0.014891849199866372      629.5921267740257
0.015086983461498874      629.6018035137644
0.015282419362693495      629.6154195783198
0.01547845715063625       629.6329749676921
0.015675394319652317      629.6544696818813
0.015872325504405583      629.2811436126046
0.01606835738884011       628.913925147147
0.016263787440706973      628.5528142855086
0.016458915880206496      628.1978110276892
0.016654044319705866      627.848915373689
0.016849474371572262      627.5061273235078
0.017045506256006017      627.1694468771458
0.017242437440758204      626.8388740346029
0.01743957168037589       626.2838211175863
0.017635803876907424      625.7191021313259
0.01783143240066149       625.1447170758217
0.018026758388388308      624.5606659510737
0.01822208437611492       623.9669487570818
0.01841771289986836       623.3635654938461
0.018613945096398854      622.7505161613666
0.018811079336015085      622.1278007596433
0.019007894687321662      621.4725537128498
0.01920381230049143       620.8189729736368
0.019399129129200405      620.1670585420042
0.01959414487161704       619.5168104179518
0.01978916061403359       618.8682286014797
0.01998447744274231       618.2213130925879
0.020180395055911654      617.5760638912766
0.020377210407217645      616.9324809975454
0.020574360469106157      616.3570732162034
0.020770608273960874      615.8017924069351
0.020966252262493188      615.2666385697403
0.021161593642948652      614.7516117046192
0.021356935023404883      614.2567118115718
0.021552579011939476      613.7819388905981
0.021748826816797996      613.3272929416981
0.021945976878691802      612.8927739648717
0.022142917141692885      612.5648198815845
0.022338957981867254      612.2797483402378
0.022534396907280062      612.0375593408314
0.02272953417907009       611.8382528833655
0.02292467145086023       611.6818289678399
0.02312011037627338       611.5682875942547
0.02331615121644832       611.49762876261
0.023513091479450195      611.4698524729056
0.023710025135207962      611.401951272453
0.02390605945730262       611.3823257761491
0.024101491924457957      611.4109759839938
0.024296622768016963      611.4879018959871
0.024491753611575823      611.6131035121291
0.02468718607873073       611.7865808324196
0.024883220400824673      612.0083338568589
0.025080154056581445      612.2783625854468
0.025277299572591536      612.6611654910981
0.025473542893039384      613.0644855279727
0.02566918243840792       613.4883226960706
0.025864519396400307      613.9326769953916
0.026059856354392216      614.397548425936
0.026255495899759323      614.8829369877034
0.026451739220204794      615.3888426806941
0.026648884736211575      615.915265504908
0.02684569473774919       616.4931506779586
0.027041607073256636      617.076134967796
0.027236918672681274      617.6642183744201
0.027431929210095855      618.2574008978311
0.027626939747510428      618.8556825380289
0.027822251346935042      619.4590632950136
0.028018163682442445      620.067543168785
0.028214973683980002      620.6811221593434
0.028412120943583204      621.269914056238
0.028608365984047285      621.8471649881513
0.02880400723361381       622.4128749550836
0.02899934588786498       622.9670439570345
0.02919468454211669       623.5096719940043
0.029390325791684838      624.0407590659928
0.02958657083215161       624.5603051730001
0.029783718091758563      625.0683103150262
0.029980652759780888      625.4060959536777
0.030176688080480362      625.7446152978004
0.030372121537075924      626.0838683473945
0.03056725336547531       626.42385510246
0.030762385193874833      626.7645755629968
0.030957818650470807      627.1060297290052
0.031153853971170976      627.4482176004848
0.031350788639194264      627.7911391774356
