% Model:              brazing.mph
% Version:            COMSOL 5.3.0.223
% Date:               Oct 20 2018, 00:48
% Dimension:          1
% Nodes:              225
% Expressions:        1
% Description:        Line graph
% x                       Height
0                         622.9192864480697
2.02242572596226E-4       622.9090939019211
4.040113375593453E-4      622.8400533643058
6.054635867748898E-4      622.7121648352237
8.067573541103817E-4      622.5254283146749
0.0010080510467017985     622.2798438026592
0.001209503071861434      621.9754112991769
0.0014112714639836859     621.6121308042277
0.001613513515825394      621.190002317812
0.001815803045808458      620.8058227607814
0.0020176184164428694     620.3783147061284
0.0022191170764546647     619.9074781538529
0.0024204572175778446     619.3933131039548
0.00262179740518867       618.8358195564341
0.002823296204553664      618.234997511291
0.0030251118070788686     617.5908469685253
0.003227401660948015      616.903367928137
0.0034297372965816655     616.2342499365864
0.003631598594156443      615.5310452643643
0.0038331430353414214     614.7937539114706
0.004034528845142556      614.0223758779057
0.004235914622467191      613.2169111636692
0.004437458966299354      612.3773597687614
0.004639320101874085      611.5037216931821
0.004841655511239337      610.5959969369313
0.005043918276497792      609.7571661106696
0.005245706959792293      608.9076138108159
0.0054471789681153834     608.0473400373701
0.00564849245128538       607.1763447903325
0.005849805932728159      606.2946280697029
0.006051277935873691      605.4021898754814
0.00625306661055245       604.4990302076678
0.006455329363777148      603.5851490662625
0.0066576887471433525     602.6990516004486
0.0068595736811967985     601.8302006672287
0.007061141707903535      600.9785962666028
0.007262551112883539      600.144238398571
0.007463960555734714      599.3271270631333
0.007665528695965537      598.5272622602895
0.00786741381892875       597.7446439900397
0.0080697734661485        596.979272252384
0.008272395437950266      596.28641126159
0.008474540847339949      595.6162611858512
0.008676367906616744      594.9688220251672
0.008878035577337231      594.3440937795384
0.009079703197965442      593.7420764489646
0.009281530107084053      593.1627700334457
0.00948367526660416       592.6061745329819
0.009686296889411194      592.0722899475732
0.009888748367913874      591.719044700206
0.010090724718905934      591.4026527945962
0.010292383720552634      591.1231142307437
0.010493883896490891      590.8804290086484
0.010695384145210549      590.6745971283104
0.010897043365029401      590.5056185897298
0.011099020079070253      590.3734933929063
0.011301472064648224      590.2782215378403
0.011503924099142101      590.2765033262549
0.011705900863193036      590.3126883382077
0.011907560133099505      590.3867765736991
0.012109060430962503      590.4987680327287
0.012310560654077738      590.6486627152965
0.012512219699917606      590.8364606214028
0.012714196091111104      591.0621617510473
0.012916647604829811      591.3257661042301
0.013119269382981878      591.7227915534297
0.013321414683399362      592.1499526183317
0.013523241722808088      592.6072492989356
0.013724909467002238      593.0946815952418
0.013926577258472442      593.6122495072501
0.014128404439597363      594.1599530349606
0.014330549975836581      594.7377921783733
0.01453317208336263       595.3457669374882
0.014735531766219815      596.0162416071905
0.014937416940401616      596.6994691706035
0.015138985143475461      597.395449627727
0.015340394656791169      598.1041829785609
0.015541804135826716      598.8256692231054
0.015743372236141022      599.5599083613603
0.015945257239325793      600.3069003933257
0.01614761668334845       601.0666453190016
0.01634987940592303       601.9249177379874
0.016551668047823844      602.7718724418584
0.016753140015983766      603.6075094306144
0.0169544534601584        604.4318287042556
0.017155766903708087      605.244830262782
0.017357238869994664      606.0465141061935
0.017559027508778132      606.8368802344901
0.01776129022699866       607.6159286476718
0.017963625484858744      608.4212523476639
0.018165486461237414      609.2032911830108
0.018367030641941378      609.9620451537122
0.018568416255992027      610.6975142597686
0.018769801906169285      611.4096985011796
0.018971346195167795      612.0985978779453
0.019173207351754082      612.7642123900657
0.019375542861313405      613.4065420375408
0.019577832661189145      614.0667631248986
0.019779648217873542      614.6790432091849
0.019981146975907166      615.2433822903998
0.020182487123025287      615.7597803685435
0.020383827220813066      616.2282374436157
0.020585325830972126      616.6487535156167
0.020787141141585735      617.0213285845463
0.020989430597769934      617.3459626504044
0.021191672662378012      617.7594958968655
0.021393441061935803      618.114241725945
0.02159489309031221       618.410200137643
0.021796186783028852      618.6473711319595
0.021997480548535182      618.8257547088945
0.022198932795108938      618.9453508684481
0.022400701557758636      619.0061596106201
0.02260294412950465       619.0081809354107
0.02280539620920995       619.0533107934051
0.023007373018156245      619.0374562408543
0.02320903233274668       618.9606172777585
0.023410532675187733      618.8227939041175
0.023612032942881025      618.6239861199314
0.023813692033404853      618.3641939251999
0.024015668469493705      618.0434173199235
0.024218120028423832      617.6616563041017
0.024420742013481003      617.2933321714631
0.02462288751935683       616.8751596810233
0.02482471476325633       616.4071388327825
0.02502638271145666       615.8892696267403
0.025228050706933344      615.321552062897
0.025429878092549915      614.7039861412526
0.025632023834248962      614.0365718618068
0.025834646148682177      613.3193092245599
0.026037006051731277      612.5968092325812
0.026238891444565628      611.8370118014532
0.02644045986526205       611.0399169311761
0.026641869595683754      610.2055246217495
0.02684327929182417       609.3338348731737
0.027044847609757647      608.4248476854489
0.02724673283158932       607.4785630585747
0.027449092495796006      606.4949809925512
0.02765135518998453       605.5304384532146
0.027853143803698084      604.55842807376
0.028054615743803996      603.5789498541872
0.028255929159991804      602.5920037944961
0.028457242575555555      601.5975898946871
0.028658714513790734      600.5957081547598
0.028860503124391312      599.5863585747144
0.029062765814231884      598.5695411545508
0.029265100752448706      597.5581070769289
0.02946696141141544       596.5708362553668
0.029668505276199596      595.6077286898649
0.029869890575077548      594.668784380423
0.03007127591008127       593.7540033270411
0.030272819883157453      592.8633855297192
0.03047468072232762       591.9969309884574
0.030677015912237836      591.1546397032556
0.030879305594778746      590.3806934536701
0.03108112103494649       589.6430812573752
0.031282619677010744      588.9418031143712
0.03148395970843373       588.2768590246576
0.0316852996905265        587.6482489882347
0.031886798184716555      587.0559730051026
0.032088613378814135      586.5000310752611
0.03229090271766436       585.9804231987104
0.03249314477533616       585.6238585637072
0.03269491316800606       585.3195171264894
0.03289636518952694       585.0673988870567
0.03309765887540427       584.8675038454093
0.033298952634071295      584.719832001547
0.033500404873789524      584.6243833554698
0.03370217362955133       584.581157907178
0.03390441619436107       584.5901556566712
0.03410686840969767       584.6944157722525
0.03430884535332711       584.8511380299796
0.0345105048019665        585.0603224298526
0.034712005278138794      585.3219689718715
0.03491350567956333       585.6360776560362
0.03511516490413611       586.002648482347
0.035317141474908095      586.4216814508035
0.03551959316946952       586.893176561406
0.035722216260139425      587.4920947251882
0.03592436286389621       588.1310867883398
0.036126191200505704      588.810152750861
0.03632786023882611       589.5292926127516
0.03652952932442421       590.2885063740118
0.036731357802754806      591.0877940346417
0.03693350464234149       591.9271555946409
0.03713612806239678       592.8065910540097
0.03733848789969145       593.741406597112
0.037540373227224554      594.6959221294769
0.03774194158292153       595.6701376511047
0.03794335124849304       596.6640531619951
0.03814476087977932       597.6776686621482
0.03834632913270157       598.710984151564
0.03854821428921239       599.7639996302427
0.038750573887637245      600.836715098184
0.03895283596123875       601.9650325196656
0.039154623958694366      603.0811334632716
0.039356095285438375      604.1850179290021
0.03955740808971597       605.2766859168572
0.03975872089337115       606.3561374268368
0.03996019221824938       607.4233724589409
0.04016198021260023       608.4783910131695
0.04036424228186526       609.5211930895225
0.040566577948397485      610.550996032641
0.040768439330593605      611.5475978064053
0.04096998391520435       612.5109984108152
0.04117136993220262       613.441197845871
0.04137275598532357       614.3381961115724
0.04157430067821714       615.2019932079197
0.04177616224060133       616.0325891349128
0.0419784981588055        616.8299838925516
0.04218078754816035       617.6094853940579
0.04238260269718259       618.3305221018177
0.04258410104946696       618.993094015831
0.04278544079179545       619.5972011360981
0.04298678048479618       620.1428434626187
0.043188278689213704      620.6300209953928
0.043390093592177985      621.0587337344207
0.04359238263785921       621.428981679702
0.043794623705544454      621.8399702767822
0.04399639111513442       622.1867587307097
0.04419784215819482       622.4693470414845
0.04439913486792596       622.6877352091068
0.044600427650446826      622.8419232335765
0.04480187891170468       622.9319111148934
0.045003646684386715      622.9576988530579
0.04520588825921017       622.9192864480697
