% Model:              brazing.mph
% Version:            COMSOL 5.3.0.223
% Date:               Oct 20 2018, 02:30
% Dimension:          1
% Nodes:              225
% Expressions:        1
% Description:        Line graph
% x                       Height
0                         639.1051368432164
2.02242572596226E-4       639.095706622761
4.040113375593453E-4      639.0260874983497
6.054635867748898E-4      638.8962794699827
8.067573541103817E-4      638.7062825376597
0.0010080510467017985     638.456096701381
0.001209503071861434      638.1457219611463
0.0014112714639836859     637.7751583169558
0.001613513515825394      637.3444057688095
0.001815803045808458      636.9585181833587
0.0020176184164428694     636.5283175726453
0.0022191170764546647     636.0538039366694
0.0024204572175778446     635.5349772754308
0.00262179740518867       634.9718375889296
0.002823296204553664      634.3643848771659
0.0030251118070788686     633.7126191401394
0.003227401660948015      633.0165403778503
0.0034297372965816655     632.341478104992
0.003631598594156443      631.6313065106282
0.0038331430353414214     630.8860255947588
0.004034528845142556      630.1056353573839
0.004235914622467191      629.2901357985036
0.004437458966299354      628.4395269181175
0.004639320101874085      627.5538087162263
0.004841655511239337      626.6329811928293
0.005043918276497792      625.7899017834164
0.005245706959792293      624.9353915418304
0.0054471789681153834     624.0694504680714
0.00564849245128538       623.1920785621394
0.005849805932728159      622.3032758240344
0.006051277935873691      621.4030422537561
0.00625306661055245       620.4913778513051
0.006455329363777148      619.5682826166808
0.0066576887471433525     618.6737565636848
0.0068595736811967985     617.7966610247757
0.007061141707903535      616.9369959999534
0.007262551112883539      616.0947614892181
0.007463960555734714      615.2699574925695
0.007665528695965537      614.4625840100076
0.00786741381892875       613.6726410415328
0.0080697734661485        612.9001285871446
0.008272395437950266      612.2043372615159
0.008474540847339949      611.5304604695081
0.008676367906616744      610.8784982111214
0.008878035577337231      610.2484504863555
0.009079703197965442      609.6403172952107
0.009281530107084053      609.0540986376867
0.00948367526660416       608.4897945137839
0.009686296889411194      607.9474049235018
0.009888748367913874      607.5977692068792
0.010090724718905934      607.2846017211231
0.010292383720552634      607.0079024662333
0.010493883896490891      606.76767144221
0.010695384145210549      606.5639086490532
0.010897043365029401      606.396614086763
0.011099020079070253      606.2657877553391
0.011301472064648224      606.1714296547818
0.011503924099142101      606.1745408951275
0.011705900863193036      606.2152307003491
0.011907560133099505      606.2934990704466
0.012109060430962503      606.4093460054198
0.012310560654077738      606.562771505269
0.012512219699917606      606.7537755699939
0.012714196091111104      606.9823581995948
0.012916647604829811      607.2485193940714
0.013119269382981878      607.6560805418542
0.013321414683399362      608.0935232245781
0.013523241722808088      608.5608474422432
0.013724909467002238      609.0580531948495
0.013926577258472442      609.585140482397
0.014128404439597363      610.1421093048857
0.014330549975836581      610.7289596623154
0.01453317208336263       611.3456915546866
0.014735531766219815      612.0280488588085
0.014937416940401616      612.7225258815719
0.015138985143475461      613.4291226229767
0.015340394656791169      614.1478390830232
0.015541804135826716      614.8786752617112
0.015743372236141022      615.6216311590407
0.015945257239325793      616.3767067750117
0.01614761668334845       617.1439021096244
0.01634987940592303       618.0186265421839
0.016551668047823844      618.8812191428915
0.016753140015983766      619.7316799117466
0.0169544534601584        620.5700088487496
0.017155766903708087      621.3962059539003
0.017357238869994664      622.2102712271989
0.017559027508778132      623.0122046686452
0.01776129022699866       623.8020062782393
0.017963625484858744      624.6188451477163
0.018165486461237414      625.4120742766894
0.018367030641941378      626.1816936651585
0.018568416255992027      626.9277033131235
0.018769801906169285      627.6501032205846
0.018971346195167795      628.3488933875418
0.019173207351754082      629.024073813995
0.019375542861313405      629.6756444999442
0.019577832661189145      630.3480737526564
0.019779648217873542      630.9709682319407
0.019981146975907166      631.5443279377965
0.020182487123025287      632.0681528702245
0.020383827220813066      632.5424430292243
0.020585325830972126      632.9671984147958
0.020787141141585735      633.3424190269394
0.020989430597769934      633.6681048656546
0.021191672662378012      634.0935099639437
0.021393441061935803      634.4585405786949
0.02159489309031221       634.7631967099082
0.021796186783028852      635.0074783575838
0.021997480548535182      635.1913855217214
0.022198932795108938      635.3149182023213
0.022400701557758636      635.3780763993832
0.02260294412950465       635.3808601129074
0.02280539620920995       635.4298337700238
0.023007373018156245      635.4162602056834
0.02320903233274668       635.3401394198863
0.023410532675187733      635.2014714126324
0.023612032942881025      635.0002561839217
0.023813692033404853      634.7364937337542
0.024015668469493705      634.4101840621298
0.024218120028423832      634.0213271690488
0.024420742013481003      633.6524558530765
0.02462288751935683       633.2325050365406
0.02482471476325633       632.761474719441
0.02502638271145666       632.2393649017779
0.025228050706933344      631.6661755835511
0.025429878092549915      631.0419067647607
0.025632023834248962      630.3665584454067
0.025834646148682177      629.640130625489
0.026037006051731277      628.9111526703894
0.026238891444565628      628.1438357360734
0.02644045986526205       627.3381798225411
0.026641869595683754      626.4941849297924
0.02684327929182417       625.6118510578274
0.027044847609757647      624.691178206646
0.02724673283158932       623.7321663762483
0.027449092495796006      622.7348155666342
0.02765135518998453       621.7633871909015
0.027853143803698084      620.7837586877705
0.028054615743803996      619.7959300572411
0.028255929159991804      618.7999012993133
0.028457242575555555      617.7956724139871
0.028658714513790734      616.7832434012624
0.028860503124391312      615.7626142611396
0.029062765814231884      614.7337849936182
0.029265100752448706      613.7105473978862
0.02946696141141544       612.7115239454982
0.029668505276199596      611.7367146364544
0.029869890575077548      610.7861194707546
0.03007127591008127       609.8597384483987
0.030272819883157453      608.9575715693869
0.03047468072232762       608.0796188337191
0.030677015912237836      607.2258802413954
0.030879305594778746      606.4447381923883
0.03108112103494649       605.6990400018534
0.031282619677010744      604.9887856697909
0.03148395970843373       604.3139751962008
0.0316852996905265        603.6746085810829
0.031886798184716555      603.0706858244374
0.032088613378814135      602.5022069262643
0.03229090271766436       601.9691718865635
0.03249314477533616       601.6113442410044
0.03269491316800606       601.3053029108104
0.03289636518952694       601.0510478959815
0.03309765887540427       600.8485791965176
0.033298952634071295      600.6978968124188
0.033500404873789524      600.599000743685
0.03370217362955133       600.5518909903163
0.03390441619436107       600.5565675523127
0.03410686840969767       600.6604537523984
0.03430884535332711       600.8164371482783
0.0345105048019665        601.0245177399521
0.034712005278138794      601.2846955274201
0.03491350567956333       601.5969705106821
0.03511516490413611       601.9613426897382
0.035317141474908095      602.3778120645884
0.03551959316946952       602.8463786352327
0.035722216260139425      603.4506416748637
0.03592436286389621       604.0946836420304
0.036126191200505704      604.7785045367325
0.03632786023882611       605.5021043589703
0.03652952932442421       606.2654831087436
0.036731357802754806      607.0686407860525
0.03693350464234149       607.9115773908969
0.03713612806239678       608.7942929232769
0.03733848789969145       609.7356772835847
0.037540373227224554      610.6963842400986
0.03774194158292153       611.6764137928185
0.03794335124849304       612.6757659417444
0.03814476087977932       613.6944406868765
0.03834632913270157       614.7324380282145
0.03854821428921239       615.7897579657588
0.038750573887637245      616.8664004995089
0.03895283596123875       618.0058414864558
0.039154623958694366      619.1323814418649
0.039356095285438375      620.2460203657363
0.03955740808971597       621.3467582580699
0.03975872089337115       622.4345951188657
0.03996019221824938       623.5095309481239
0.04016198021260023       624.5715657458442
0.04036424228186526       625.6206995120267
0.040566577948397485      626.6572143512975
0.040768439330593605      627.6602252656232
0.04096998391520435       628.6297322550039
0.04117136993220262       629.5657353194397
0.04137275598532357       630.4682344589304
0.04157430067821714       631.337229673476
0.04177616224060133       632.1727209630768
0.0419784981588055        632.9747083277324
0.04218078754816035       633.7621025832746
0.04238260269718259       634.4895033806547
0.04258410104946696       635.1569107198728
0.04278544079179545       635.7643246009287
0.04298678048479618       636.3117450238226
0.043188278689213704      636.7991719885545
0.043390093592177985      637.2266054951242
0.04359238263785921       637.5940455435318
0.043794623705544454      638.0126278728972
0.04399639111513442       638.3655827974325
0.04419784215819482       638.6529103171379
0.04439913486792596       638.8746104320135
0.044600427650446826      639.030683142059
0.04480187891170468       639.1211284472748
0.045003646684386715      639.1459463476606
0.04520588825921017       639.1051368432164
