% Model:              brazing.mph
% Version:            COMSOL 5.3.0.223
% Date:               Oct 20 2018, 02:31
% Dimension:          1
% Nodes:              225
% Expressions:        1
% Description:        Line graph
% x                       Height
0                         638.8390789181447
2.1191841480136804E-4     638.7410902071717
4.2353438892247565E-4     638.6018337192394
6.349689892252786E-4      638.4213094543471
8.463435942227858E-4      638.1995174124955
0.001057779685752053      637.9364575936845
0.001269398639759412      637.6321299979136
0.001481321517995422      637.2865346251833
0.0017252358262731596     636.8260616006884
0.0019686866163640313     636.332691797799
0.0022118589563155885     635.8064252165152
0.002454938550168189      635.2472618568368
0.0026981113144448556     634.6552017187641
0.0029415629522145732     634.0302448022967
0.0031854785295931678     633.3723911074349
0.0034450106912723537     632.5631758330862
0.0037039863009040125     631.7208432563484
0.003962627412610827      630.8453933772211
0.0042211569424298        629.9368261957045
0.004479798094906585      628.9951417117989
0.004738773785972872      628.0203399255035
0.004998306069542035      627.0124208368192
0.005274868491808245      625.8318422662674
0.005550758931995686      624.6333787309525
0.0058262454501036105     623.4170302308742
0.006101597285810183      622.1827967660325
0.006377084073678616      620.930678336428
0.006652975052596927      619.6606749420598
0.006929538280995558      618.3727865829286
0.007206101510950518      617.0367096760265
0.007481992491406557      615.7193168866129
0.007757479280801014      614.4206082146875
0.00803283111802884       613.1405836602505
0.008308317637660222      611.8792432233021
0.008584208079380276      610.6365869038417
0.008860770503195153      609.4126147018699
0.009120302815147717      608.264116363612
0.00937927853441616       607.1598417337799
0.009637919714987194      606.0997908123734
0.009896449272866283      605.0839635993929
0.010155090412673047      604.1123600948384
0.010414066050518256      603.1849802987093
0.01067359824059789       602.3018242110063
0.010917512776055054      601.4985946625667
0.011160965100129169      600.7503132826371
0.011404139717480647      600.0569800712174
0.01164722176512739       599.4185950283077
0.011890396591516505      598.8351581539082
0.012133849333188814      598.3066694480185
0.012377764493855997      597.8331289106388
0.01258968694000722       597.4673067429758
0.012801305803204788      597.1453324251254
0.013012742322906452      596.8672059570874
0.013224118052332232      596.632927338862
0.01343555464954572       596.4424965704494
0.013647173667633327      596.295913651849
0.013859096345786744      596.1931785830612
0.014071014760598048      596.1514842188024
0.014282630734729056      596.1527928134839
0.01449406533504172       596.1971043671057
0.014705439940049088      596.2844188796679
0.014916876031588231      596.4147363511706
0.015128494985605482      596.5880567816135
0.015340417863851432      596.804380170997
0.01558433217214941       597.0743217859232
0.015827782962260412      597.406723760026
0.016070955302232025      597.8015860933052
0.016314034896104664      598.258908785761
0.0165572076604014        598.7786918373937
0.01680065929819124       599.3609352482027
0.01704457487559009       600.0056390181884
0.01730410703726679       600.7104475515392
0.017563082646895985      601.4585499642398
0.01782172375860034       602.2499462562897
0.018080253288416847      603.0846364276892
0.01833889444089119       603.9626204784388
0.018597870131955005      604.8838984085374
0.018857402415521692      605.8484702179859
0.019133964837753384      606.8825004636277
0.019409855277906563      607.93645177368
0.019685341795980367      609.0103241481426
0.019960693631652874      610.1041175870157
0.0202361804194872        611.2178320902992
0.020512071398371242      612.3514676579931
0.020788634626735362      613.5050242900975
0.02106519785666259       614.6267871501465
0.021341088837091095      615.7362148952764
0.021616575626458134      616.8333075254873
0.02189192746365859       617.9180650407792
0.022167413983262562      618.9904874411525
0.02244330442495508       620.0505747266063
0.022719866848742224      621.0983268971414
0.022979399160698737      621.9761430456927
0.023238374879971102      622.8312120087298
0.023497016060546046      623.6635337862527
0.023755545618429033      624.4731083782615
0.02401418675823971       625.2599357847565
0.024273162396088833      626.024016005737
0.024532694586172417      626.7653490412038
0.02477660912165014       627.3784025330147
0.02502006144574469       627.9565677023165
0.025263236063116538      628.4998445491094
0.025506318110783622      629.0082330733934
0.025749492937193107      629.4817332751688
0.02599294567888585       629.9203451544349
0.026236860839573585      630.3240687111922
0.026448783285734738      630.6165813659958
0.02666040214894219       630.8895695699425
0.026871838668653707      631.1430333230321
0.027083214398089334      631.3769726252647
0.027294650995312687      631.5913874766404
0.027506270013410168      631.7862778771588
0.02771819269157351       631.9616438268205
0.02793011110637494       632.0421584500261
0.028141727080496122      632.1014362423822
0.028353161680798985      632.1394772038886
0.028564536285796558      632.1562813345457
0.028775972377325904      632.1518486343537
0.028987591331333325      632.1261791033115
0.029199514209569403      632.0792727414203
0.02944342851784522       631.8867214815896
0.02968687930793418       631.6487671128617
0.02993005164788383       631.3654096352362
0.030173131241734534      631.0366490487135
0.0304163040060093        630.6624853532934
0.0306597556437771        630.2429185489757
0.030903671221153783      629.7779486357608
0.031163203382828072      629.1150693841099
0.03142217899245488       628.4047518685741
0.03168082010415685       627.6469960891535
0.03193934963397098       626.8418020458481
0.032197990786442934      625.9891697386581
0.03245696647750436       625.0890991675831
0.032716498761068635      624.1415903326234
0.03299306118333142       622.9437213738371
0.03326895162351545       621.7240928486234
0.03354443814161999       620.4827047569823
0.03381978997732317       619.2195570989139
0.034095276765188226      617.9346498744184
0.03437116774410313       616.6279830834951
0.03464773097249833       615.2995567261446
0.034924294202460265      613.8891916419041
0.03520018518292322       612.5004854609164
0.03547567197232456       611.133438183181
0.035751023809559274      609.7880498086984
0.036026510329197556      608.4643203374686
0.036302400770924524      607.162249769491
0.03657896319474637       605.8818381047663
0.036838495506703706      604.6763885869428
0.03709747122597688       603.5267713234822
0.037356112406552636      602.4329863143843
0.03761464196443644       601.3950335596493
0.03787328310424792       600.4129130592773
0.03813225874209787       599.4866248132679
0.03839179093218227       598.6161688216216
0.03863570546763781       597.8288748535361
0.038879157791710306      597.1096763603412
0.03912233240906017       596.4585733420363
0.03936541445670531       595.8755657986219
0.039608589283092806      595.3606537300983
0.039852042024763494      594.9138371364646
0.04009595718542905       594.5351160177215
0.040307879631580334      594.2440331568857
0.04051949849477797       594.007509708627
0.0407309350144797        593.8255456729454
0.040942310743905544      593.6981410498408
0.04115374734111909       593.6252958393137
0.04136536635920676       593.6070100413634
0.04157728903736024       593.6432836559903
0.04178920745215007       593.7407195871102
0.042000823426259694      593.8911402995453
0.042212258026551035      594.0945457932955
0.04242363263153709       594.350936068361
0.0426350687230549        594.6603111247418
0.042846687677050764      595.0226709624376
0.04305861055527523       595.4380155814488
0.04330252486354604       595.9458682328293
0.043545975653630026      596.5254314681515
0.04378914799357473       597.1767052874151
0.044032227587420474      597.8996896906204
0.04427540035169028       598.6943846777677
0.04451885198945311       599.5607902488563
0.044762767566824783      600.4989064038865
0.045022299728516735      601.5298472002462
0.04528127533816108       602.6106507088216
0.045539916449880535      603.7413169296125
0.045798445979712124      604.9218458626189
0.046057087132201545      606.152237507841
0.04631606282328052       607.4324918652785
0.046575595106862454      608.7626089349318
0.04685215752913061       610.1778115122988
0.04712804796931999       611.6181105053498
0.04740353448742985       613.0835059140842
0.04767888632313835       614.5739977385023
0.04795437311100872       616.0895859786042
0.048230264089928976      617.6302706343895
0.048506827318329566      619.1960517058586
0.04878339054829114       620.6756958502395
0.049059281528753745      622.1342240365191
0.04933476831815475       623.571636264697
0.0496101201553891        624.9879325347734
0.04988560667502701       626.3831128467489
0.05016149711675364       627.7571772006223
0.050438059540575134      629.1101255963946
0.05069759185254397       630.1980737582808
0.05095656757182859       631.2371960294015
0.05121520875241573       632.2274924097568
0.05147373831031092       633.1689628993466
0.051732379450133786      634.0616074981715
0.05199135508799517       634.9054262062307
0.05225088727809108       635.7004190235245
0.0524948018135407        636.3212136299705
0.052738254137607306      636.8801834737278
0.05298142875495131       637.3773285547961
0.05322451080259058       637.8126488731755
0.0534676856289722        638.1861444288663
0.05371113837063701       638.497815221868
0.05395505353129665       638.7476612521809
0.05416697597743634       638.8936622016605
0.054378594840622414      638.995349390169
0.05459003136031263       639.0527228177062
0.05480140708972696       639.0657824842724
0.05501284368692898       639.0345283898679
0.0552244627050051        638.9589605344917
0.05543638538314697       638.8390789181447
