% Model:              brazing.mph
% Version:            COMSOL 5.3.0.223
% Date:               Oct 20 2018, 03:20
% Dimension:          1
% Nodes:              225
% Expressions:        1
% Description:        Line graph
% x                       Height
0                         588.0303787065179
2.1191841480136804E-4     587.9498490969994
4.2353438892247565E-4     587.8329604632795
6.349689892252786E-4      587.6797128053583
8.463435942227858E-4      587.4901061232362
0.001057779685752053      587.2641404169127
0.001269398639759412      587.0018156863878
0.001481321517995422      586.7031319316618
0.0017252358262731596     586.3044406482342
0.0019686866163640313     585.8767727157099
0.0022118589563155885     585.4201281340889
0.002454938550168189      584.9345069033715
0.0026981113144448556     584.4199090235576
0.0029415629522145732     583.876334494647
0.0031854785295931678     583.30378331664
0.0034450106912723537     582.5982289304247
0.0037039863009040125     581.8632562396486
0.003962627412610827      581.0988652443118
0.0042211569424298        580.305055944414
0.004479798094906585      579.4818283399558
0.004738773785972872      578.6291824309363
0.004998306069542035      577.7471182173564
0.005274868491808245      576.714357325108
0.005550758931995686      575.665766196856
0.0058262454501036105     574.6013448326004
0.006101597285810183      573.5210932323411
0.006377084073678616      572.4250113960784
0.006652975052596927      571.3130993238118
0.006929538280995558      570.1853570155417
0.007206101510950518      569.0159597216439
0.007481992491406557      567.8629748868905
0.007757479280801014      566.7264025112815
0.00803283111802884       565.606242594817
0.008308317637660222      564.502495137497
0.008584208079380276      563.4151601393212
0.008860770503195153      562.3442376002901
0.009120302815147717      561.3384938839218
0.00937927853441616       560.3714622514008
0.009637919714987194      559.4431427027266
0.009896449272866283      558.5535352378996
0.010155090412673047      557.70263985692
0.010414066050518256      556.8904565597871
0.01067359824059789       556.1169853465015
0.010917512776055054      555.4122440724021
0.011160965100129169      554.7553264760849
0.011404139717480647      554.1462325575496
0.01164722176512739       553.5849623167965
0.011890396591516505      553.0715157538256
0.012133849333188814      552.6058928686366
0.012377764493855997      552.1880936612298
0.01258968694000722       551.8640434111627
0.012801305803204788      551.5783096668846
0.013012742322906452      551.3308924283956
0.013224118052332232      551.1217916956957
0.01343555464954572       550.9510074687852
0.013647173667633327      550.8185397476634
0.013859096345786744      550.7243885323309
0.014071014760598048      550.6823425376639
0.014282630734729056      550.6778375996658
0.01449406533504172       550.7108737183365
0.014705439940049088      550.7814508936759
0.014916876031588231      550.8895691256846
0.015128494985605482      551.0352284143617
0.015340417863851432      551.2184287597078
0.01558433217214941       551.446884612919
0.015827782962260412      551.7299512724577
0.016070955302232025      552.0676287383238
0.016314034896104664      552.4599170105173
0.0165572076604014        552.9068160890386
0.01680065929819124       553.4083259738868
0.01704457487559009       553.9644466650627
0.01730410703726679       554.5710449290466
0.017563082646895985      555.2155944610148
0.01782172375860034       555.8980952609675
0.018080253288416847      556.6185473289045
0.01833889444089119       557.3769506648263
0.018597870131955005      558.1733052687321
0.018857402415521692      559.0076111406225
0.019133964837753384      559.9018628033052
0.019409855277906563      560.813660532072
0.019685341795980367      561.7430043269234
0.019960693631652874      562.689894187859
0.0202361804194872        563.654330114879
0.020512071398371242      564.636312107983
0.020788634626735362      565.6358401671716
0.02106519785666259       566.6110688384586
0.021341088837091095      567.5754845330338
0.021616575626458134      568.5290872508971
0.02189192746365859       569.4718769920488
0.022167413983262562      570.4038537564891
0.02244330442495508       571.3250175442173
0.022719866848742224      572.2353683552341
0.022979399160698737      572.9985128237591
0.023238374879971102      573.7412953794463
0.023497016060546046      574.4637160222959
0.023755545618429033      575.1657747523079
0.02401418675823971       575.8474715694824
0.024273162396088833      576.508806473819
0.024532694586172417      577.1497794653181
0.02477660912165014       577.680515186302
0.02502006144574469       578.1803400706872
0.025263236063116538      578.6492541184736
0.025506318110783622      579.087257329661
0.025749492937193107      579.49434970425
0.02599294567888585       579.8705312422398
0.026236860839573585      580.2158019436312
0.026448783285734738      580.4652777797264
0.02666040214894219       580.6978152151177
0.026871838668653707      580.913414249805
0.027083214398089334      581.1120748837884
0.027294650995312687      581.2937971170682
0.027506270013410168      581.4585809496438
0.02771819269157351       581.6064263815156
0.02793011110637494       581.6710021707686
0.028141727080496122      581.7174456609292
0.028353161680798985      581.7457568519974
0.028564536285796558      581.7559357439729
0.028775972377325904      581.7479823368566
0.028987591331333325      581.7218966306474
0.029199514209569403      581.677678625346
0.02944342851784522       581.506570589136
0.02968687930793418       581.2960612422344
0.02993005164788383       581.046150584641
0.030173131241734534      580.7568386163562
0.0304163040060093        580.42812533738
0.0306597556437771        580.060010747712
0.030903671221153783      579.6524948473525
0.031163203382828072      579.0727062458843
0.03142217899245488       578.451353747009
0.03168082010415685       577.7884373507262
0.03193934963397098       577.0839570570364
0.032197990786442934      576.3379128659396
0.03245696647750436       575.5503047774353
0.032716498761068635      574.7211327915239
0.03299306118333142       573.6768698456017
0.03326895162351545       572.6134956317234
0.03354443814161999       571.531010149889
0.03381978997732317       570.4294134000984
0.034095276765188226      569.3087053823521
0.03437116774410313       568.1688860966493
0.03464773097249833       567.0099555429906
0.034924294202460265      565.7842598096908
0.03520018518292322       564.5776515962453
0.03547567197232456       563.3901309026543
0.035751023809559274      562.2216977289175
0.036026510329197556      561.0723520750354
0.036302400770924524      559.9420939410074
0.03657896319474637       558.830923326834
0.036838495506703706      557.7854882605446
0.03709747122597688       556.7891970315412
0.037356112406552636      555.8420496398237
0.03761464196443644       554.944046085392
0.03787328310424792       554.0951863682466
0.03813225874209787       553.2954704883867
0.03839179093218227       552.544898445813
0.03863570546763781       551.865258750489
0.038879157791710306      551.2451079432186
0.03912233240906017       550.6844460240014
0.03936541445670531       550.183272992838
0.039608589283092806      549.7415888497284
0.039852042024763494      549.359393594672
0.04009595718542905       549.0366872276693
0.040307879631580334      548.788928433871
0.04051949849477797       548.5887451893358
0.0407309350144797        548.4361374940635
0.040942310743905544      548.3311053480545
0.04115374734111909       548.2736487513088
0.04136536635920676       548.2637677038258
0.04157728903736024       548.3014622056062
0.04178920745215007       548.3918796237476
0.042000823426259694      548.5284674223144
0.042212258026551035      548.7112256013066
0.04242363263153709       548.9401541607241
0.0426350687230549        549.2152531005671
0.042846687677050764      549.5365224208352
0.04305861055527523       549.9039621215288
0.04330252486354604       550.3522535493237
0.043545975653630026      550.8630932814459
0.04378914799357473       551.4364813178955
0.044032227587420474      552.0724176586725
0.04427540035169028       552.7709023037771
0.04451885198945311       553.531935253209
0.044762767566824783      554.3555165069683
0.045022299728516735      555.2590418929884
0.04528127533816108       556.2060037283463
0.045539916449880535      557.1964020130421
0.045798445979712124      558.2302367470759
0.046057087132201545      559.3075079304477
0.04631606282328052       560.4282155631572
0.046575595106862454      561.5923596452049
0.04685215752913061       562.8317769597496
0.04712804796931999       564.0928953636299
0.04740353448742985       565.3757148568454
0.04767888632313835       566.6802354393967
0.04795437311100872       568.0064571112837
0.048230264089928976      569.354379872506
0.048506827318329566      570.7240037230639
0.04878339054829114       572.0242549463867
0.049059281528753745      573.3057644379088
0.04933476831815475       574.5685321976299
0.0496101201553891        575.8125582255502
0.04988560667502701       577.0378425216701
0.05016149711675364       578.2443850859887
0.050438059540575134      579.4321859185068
0.05069759185254397       580.3899038124747
0.05095656757182859       581.3047474748731
0.05121520875241573       582.1767169057022
0.05147373831031092       583.0058121049622
0.051732379450133786      583.7920330726531
0.05199135508799517       584.5353798087745
0.05225088727809108       585.2358523133267
0.0524948018135407        585.783977320587
0.052738254137607306      586.2777519407317
0.05298142875495131       586.7171761737603
0.05322451080259058       587.1022500196732
0.0534676856289722        587.4329734784706
0.05371113837063701       587.7093465501517
0.05395505353129665       587.9313692347173
0.05416697597743634       588.0616389289864
0.054378594840622414      588.1532001285851
0.05459003136031263       588.2060528335129
0.05480140708972696       588.2201970437701
0.05501284368692898       588.1956327593568
0.0552244627050051        588.1323599802727
0.05543638538314697       588.0303787065179
