% Model:              brazing.mph
% Version:            COMSOL 5.3.0.223
% Date:               Oct 20 2018, 02:11
% Dimension:          1
% Nodes:              225
% Expressions:        1
% Description:        Line graph
% x                       Height
0                         649.7439186593627
2.02242572596226E-4       649.7342405715109
4.040113375593453E-4      649.6657542671542
6.054635867748898E-4      649.5384597462926
8.067573541103817E-4      649.3523570089262
0.0010080510467017985     649.1074460550551
0.001209503071861434      648.8037268846792
0.0014112714639836859     648.4411994977984
0.001613513515825394      648.0198638944128
0.001815803045808458      647.630947528573
0.0020176184164428694     647.1986575694792
0.0022191170764546647     646.7229940171318
0.0024204572175778446     646.2039568715304
0.00262179740518867       645.6415461326752
0.002823296204553664      645.0357618005663
0.0030251118070788686     644.3866038752036
0.003227401660948015      643.6940723565871
0.0034297372965816655     643.0180116593648
0.003631598594156443      642.3080976747775
0.0038331430353414214     641.5643304028254
0.004034528845142556      640.786709843508
0.004235914622467191      639.9752359968256
0.004437458966299354      639.1299088627783
0.004639320101874085      638.2507284413659
0.004841655511239337      637.3376947325886
0.005043918276497792      636.4874774627081
0.005245706959792293      635.626961731301
0.0054471789681153834     634.7561475383673
0.00564849245128538       633.8750348839069
0.005849805932728159      632.9836237679199
0.006051277935873691      632.0819141904063
0.00625306661055245       631.169906151366
0.006455329363777148      630.2475996507991
0.0066576887471433525     629.3527416626488
0.0068595736811967985     628.4752455325751
0.007061141707903535      627.6151112605783
0.007262551112883539      626.772338846658
0.007463960555734714      625.9469282908146
0.007665528695965537      625.138879593048
0.00786741381892875       624.3481927533581
0.0080697734661485        623.5748677717451
0.008272395437950266      622.8717138138674
0.008474540847339949      622.192207470199
0.008676367906616744      621.5363487407399
0.008878035577337231      620.9041376254901
0.009079703197965442      620.2955741244496
0.009281530107084053      619.7106582376182
0.00948367526660416       619.1493899649962
0.009686296889411194      618.6117693065834
0.009888748367913874      618.2483934806071
0.010090724718905934      617.9227027750611
0.010292383720552634      617.6346971899455
0.010493883896490891      617.3843767252604
0.010695384145210549      617.1717413810056
0.010897043365029401      616.9967911571813
0.011099020079070253      616.8595260537874
0.011301472064648224      616.7599460708238
0.011503924099142101      616.7520642983836
0.011705900863193036      616.7828943588838
0.011907560133099505      616.8524362523245
0.012109060430962503      616.9606899787057
0.012310560654077738      617.1076555380273
0.012512219699917606      617.2933329302894
0.012714196091111104      617.5177221554919
0.012916647604829811      617.780823213635
0.013119269382981878      618.1735368819178
0.013321414683399362      618.5970767381551
0.013523241722808088      619.0514427823467
0.013724909467002238      619.5366350144931
0.013926577258472442      620.0526534345938
0.014128404439597363      620.5994980426491
0.014330549975836581      621.1771688386588
0.01453317208336263       621.7856658226232
0.014735531766219815      622.4551938158286
0.014937416940401616      623.1382090149466
0.015138985143475461      623.8347114199772
0.015340394656791169      624.5447010309205
0.015541804135826716      625.2681778477763
0.015743372236141022      626.0051418705448
0.015945257239325793      626.7555930992257
0.01614761668334845       627.5195315338194
0.01634987940592303       628.3769226125758
0.016551668047823844      629.2235752784541
0.016753140015983766      630.0594895314545
0.0169544534601584        630.884665371577
0.017155766903708087      631.6991027988214
0.017357238869994664      632.502801813188
0.017559027508778132      633.2957624146763
0.01776129022699866       634.077984603287
0.017963625484858744      634.8862450969028
0.018165486461237414      635.6712683161605
0.018367030641941378      636.43305426106
0.018568416255992027      637.1716029316012
0.018769801906169285      637.8869143277843
0.018971346195167795      638.5789884496093
0.019173207351754082      639.247825297076
0.019375542861313405      639.8934248701847
0.019577832661189145      640.5543309698519
0.019779648217873542      641.1679526814665
0.019981146975907166      641.7342900050288
0.020182487123025287      642.2533429405387
0.020383827220813066      642.7251114879961
0.020585325830972126      643.1495956474012
0.020787141141585735      643.5267954187537
0.020989430597769934      643.8567108020538
0.021191672662378012      644.2677013194569
0.021393441061935803      644.6201798116821
0.02159489309031221       644.9141462787292
0.021796186783028852      645.1496007205982
0.021997480548535182      645.3265431372893
0.022198932795108938      645.444973528802
0.022400701557758636      645.5048918951371
0.02260294412950465       645.5062982362939
0.02280539620920995       645.5478939008482
0.023007373018156245      645.528756376207
0.02320903233274668       645.4488856623703
0.023410532675187733      645.3082817593383
0.023612032942881025      645.106944667111
0.023813692033404853      644.8448743856881
0.024015668469493705      644.5220709150695
0.024218120028423832      644.1385342552559
0.024420742013481003      643.7636938397194
0.02462288751935683       643.3393309955567
0.02482471476325633       642.8654457227676
0.02502638271145666       642.3420380213523
0.025228050706933344      641.7691078913108
0.025429878092549915      641.146655332643
0.025632023834248962      640.4746803453492
0.025834646148682177      639.7531829294288
0.026037006051731277      639.0247833498183
0.026238891444565628      638.2595130650338
0.02644045986526205       637.4573720750755
0.026641869595683754      636.618360379943
0.02684327929182417       635.7424779796366
0.027044847609757647      634.8297248741563
0.02724673283158932       633.8801010635021
0.027449092495796006      632.8936065476739
0.02765135518998453       631.922078426723
0.027853143803698084      630.9436487422009
0.028054615743803996      629.9583174941075
0.028255929159991804      628.966084682443
0.028457242575555555      627.9669503072073
0.028658714513790734      626.9609143684004
0.028860503124391312      625.9479768660223
0.029062765814231884      624.9281378000729
0.029265100752448706      623.9139507444387
0.02946696141141544       622.9242498868615
0.029668505276199596      621.9590352273411
0.029869890575077548      621.0183067658779
0.03007127591008127       620.1020645024715
0.030272819883157453      619.2103084371223
0.03047468072232762       618.3430385698299
0.030677015912237836      617.5002549005945
0.030879305594778746      616.7238396051629
0.03108112103494649       615.9847417816394
0.031282619677010744      615.2829614300243
0.03148395970843373       614.6184985503174
0.0316852996905265        613.991353142519
0.031886798184716555      613.4015252066284
0.032088613378814135      612.8490147426465
0.03229090271766436       612.3338217505726
0.03249314477533616       611.9762377264997
0.03269491316800606       611.6717213773776
0.03289636518952694       611.4202727032059
0.03309765887540427       611.2218917039851
0.033298952634071295      611.0765783797149
0.033500404873789524      610.9843327303953
0.03370217362955133       610.9451547560265
0.03390441619436107       610.9590444566084
0.03410686840969767       611.0666240712446
0.03430884535332711       611.227451026816
0.0345105048019665        611.4415253233225
0.034712005278138794      611.7088469607642
0.03491350567956333       612.029415939141
0.03511516490413611       612.403232258453
0.035317141474908095      612.8302959187001
0.03551959316946952       613.3106069198824
0.035722216260139425      613.9149046890977
0.03592436286389621       614.5599318133369
0.036126191200505704      615.2456882925998
0.03632786023882611       615.9721741268863
0.03652952932442421       616.7393893161966
0.036731357802754806      617.5473338605307
0.03693350464234149       618.3960077598886
0.03713612806239678       619.2854110142702
0.03733848789969145       620.2287191005003
0.037540373227224554      621.192221832494
0.03774194158292153       622.1759192102517
0.03794335124849304       623.1798112337727
0.03814476087977932       624.2038979030575
0.03834632913270157       625.248179218106
0.03854821428921239       626.3126551789182
0.038750573887637245      627.3973257854941
0.03895283596123875       628.533746219996
0.039154623958694366      629.6583409859355
0.039356095285438375      630.7711100833126
0.03955740808971597       631.8720535121272
0.03975872089337115       632.9611712723794
0.03996019221824938       634.038463364069
0.04016198021260023       635.1039297871962
0.04036424228186526       636.157570541761
0.040566577948397485      637.198176832568
0.040768439330593605      638.2055029083921
0.04096998391520435       639.1795487692332
0.04117136993220262       640.1203144150912
0.04137275598532357       641.0277998459662
0.04157430067821714       641.9020050618582
0.04177616224060133       642.7429300627673
0.0419784981588055        643.5505748486933
0.04218078754816035       644.3374770150875
0.04238260269718259       645.0664752306153
0.04258410104946696       645.7375694952767
0.04278544079179545       646.3507598090719
0.04298678048479618       646.9060461720006
0.043188278689213704      647.4034285840629
0.043390093592177985      647.842907045259
0.04359238263785921       648.2244815555887
0.043794623705544454      648.6388506126281
0.04399639111513442       648.9890941213624
0.04419784215819482       649.2752120817919
0.04439913486792596       649.4972044939161
0.044600427650446826      649.6550713577353
0.04480187891170468       649.7488126732496
0.045003646684386715      649.7784284404587
0.04520588825921017       649.7439186593627
