% Model:              brazing.mph
% Version:            COMSOL 5.3.0.223
% Date:               Oct 20 2018, 03:13
% Dimension:          1
% Nodes:              225
% Expressions:        1
% Description:        Line graph
% x                       Height
0                         652.3928062163865
2.02242572596226E-4       652.3876660280808
4.040113375593453E-4      652.3183740895998
6.054635867748898E-4      652.1849304009435
8.067573541103817E-4      651.9873349621118
0.0010080510467017985     651.7255877731048
0.001209503071861434      651.3996888339224
0.0014112714639836859     651.0096381445645
0.001613513515825394      650.5554357050313
0.001815803045808458      650.1512698190594
0.0020176184164428694     649.6999308089885
0.0022191170764546647     649.2014186748186
0.0024204572175778446     648.6557334165495
0.00262179740518867       648.0628750341815
0.002823296204553664      647.4228435277145
0.0030251118070788686     646.7356388971484
0.003227401660948015      646.0012611424833
0.0034297372965816655     645.2871603639319
0.003631598594156443      644.5356004089381
0.0038331430353414214     643.7465812775018
0.004034528845142556      642.9201029696231
0.004235914622467191      642.056165485302
0.004437458966299354      641.1547688245385
0.004639320101874085      640.2159129873326
0.004841655511239337      639.2395979736841
0.005043918276497792      638.3495034624937
0.005245706959792293      637.4469895317882
0.0054471789681153834     636.5320561815678
0.00564849245128538       635.6047034118324
0.005849805932728159      634.664931222582
0.006051277935873691      633.7127396138168
0.00625306661055245       632.7481285855367
0.006455329363777148      631.7710981377415
0.0066576887471433525     630.8243608837196
0.0068595736811967985     629.8962177922651
0.007061141707903535      628.9866688633781
0.007262551112883539      628.0957140970586
0.007463960555734714      627.2233534933066
0.007665528695965537      626.369587052122
0.00786741381892875       625.534414773505
0.0080697734661485        624.7178366574555
0.008272395437950266      623.9832417858678
0.008474540847339949      623.2718044529767
0.008676367906616744      622.5835246587819
0.008878035577337231      621.9184024032837
0.009079703197965442      621.2764376864819
0.009281530107084053      620.6576305083767
0.00948367526660416       620.0619808689678
0.009686296889411194      619.4894887682553
0.009888748367913874      619.1243098154491
0.010090724718905934      618.7976538806329
0.010292383720552634      618.5095209638063
0.010493883896490891      618.2599110649695
0.010695384145210549      618.0488241841226
0.010897043365029401      617.8762603212656
0.011099020079070253      617.7422194763983
0.011301472064648224      617.6467016495209
0.011503924099142101      617.6557499220874
0.011705900863193036      617.7045088274295
0.011907560133099505      617.7929783655475
0.012109060430962503      617.9211585364411
0.012310560654077738      618.0890493401107
0.012512219699917606      618.2966507765558
0.012714196091111104      618.543962845777
0.012916647604829811      618.8309855477737
0.013119269382981878      619.2699594202244
0.013321414683399362      619.7405424818586
0.013523241722808088      620.2427347326764
0.013724909467002238      620.7765361726777
0.013926577258472442      621.3419468018625
0.014128404439597363      621.938966620231
0.014330549975836581      622.5675956277828
0.01453317208336263       623.2278338245184
0.014735531766219815      623.958092591294
0.014937416940401616      624.7008419840273
0.015138985143475461      625.4560820027183
0.015340394656791169      626.223812647367
0.015541804135826716      627.0040339179734
0.015743372236141022      627.7967458145376
0.015945257239325793      628.6019483370594
0.01614761668334845       629.419641485539
0.01634987940592303       630.3544753908994
0.016551668047823844      631.2761413083481
0.016753140015983766      632.1846392378851
0.0169544534601584        633.0799691795104
0.017155766903708087      633.962131133224
0.017357238869994664      634.8311250990258
0.017559027508778132      635.6869510769161
0.01776129022699866       636.5296090668945
0.017963625484858744      637.3995011948452
0.018165486461237414      638.2441552231084
0.018367030641941378      639.0635711516836
0.018568416255992027      639.857748980571
0.018769801906169285      640.6266887097709
0.018971346195167795      641.3703903392828
0.019173207351754082      642.0888538691071
0.019375542861313405      642.7820792992436
0.019577832661189145      643.4960713385333
0.019779648217873542      644.1569036088837
0.019981146975907166      644.7645761102948
0.020182487123025287      645.3190888427664
0.020383827220813066      645.8204418062987
0.020585325830972126      646.2686350008918
0.020787141141585735      646.6636684265457
0.020989430597769934      647.00554208326
0.021191672662378012      647.455051669449
0.021393441061935803      647.840057142401
0.02159489309031221       648.1605585021161
0.021796186783028852      648.4165557485945
0.021997480548535182      648.608048881836
0.022198932795108938      648.7350379018408
0.022400701557758636      648.7975228086086
0.02260294412950465       648.7955036021397
0.02280539620920995       648.8397347641552
0.023007373018156245      648.8171106009785
0.02320903233274668       648.7276311126093
0.023410532675187733      648.5712962990476
0.023612032942881025      648.3481061602937
0.023813692033404853      648.0580606963472
0.024015668469493705      647.7011599072084
0.024218120028423832      647.2774037928772
0.024420742013481003      646.8776071839856
0.02462288751935683       646.423341926286
0.02482471476325633       645.9146080197785
0.02502638271145666       645.3514054644631
0.025228050706933344      644.7337342603399
0.025429878092549915      644.0615944074087
0.025632023834248962      643.3349859056699
0.025834646148682177      642.553908755123
0.026037006051731277      641.7682591523911
0.026238891444565628      640.9416381249277
0.02644045986526205       640.0740456727328
0.026641869595683754      639.1654817958063
0.02684327929182417       638.2159464941483
0.027044847609757647      637.2254397677586
0.02724673283158932       636.1939616166375
0.027449092495796006      635.1215120407848
0.02765135518998453       634.0793782473029
0.027853143803698084      633.0283739436921
0.028054615743803996      631.9684991299526
0.028255929159991804      630.8997538060843
0.028457242575555555      629.8221379720871
0.028658714513790734      628.7356516279611
0.028860503124391312      627.6402947737064
0.029062765814231884      626.5360674093228
0.029265100752448706      625.4375264432011
0.02946696141141544       624.3649331282046
0.029668505276199596      623.3182874643335
0.029869890575077548      622.2975894515873
0.03007127591008127       621.3028390899665
0.030272819883157453      620.3340363794706
0.03047468072232762       619.3911813201001
0.030677015912237836      618.4742739118548
0.030879305594778746      617.6344621838858
0.03108112103494649       616.8326259177985
0.031282619677010744      616.0687651135928
0.03148395970843373       615.3428797712687
0.0316852996905265        614.6549698908262
0.031886798184716555      614.0050354722654
0.032088613378814135      613.393076515586
0.03229090271766436       612.8190930207883
0.03249314477533616       612.432050373375
0.03269491316800606       612.1002500569447
0.03289636518952694       611.8236920714976
0.03309765887540427       611.6023764170335
0.033298952634071295      611.4363030935526
0.033500404873789524      611.3254721010549
0.03370217362955133       611.2698834395401
0.03390441619436107       611.2695371090085
0.03410686840969767       611.3756563875038
0.03430884535332711       611.5374030142536
0.0345105048019665        611.7547769892581
0.034712005278138794      612.027778312517
0.03491350567956333       612.3564069840303
0.03511516490413611       612.7406630037984
0.035317141474908095      613.1805463718208
0.03551959316946952       613.6760570880978
0.035722216260139425      614.3163968201814
0.03592436286389621       614.9993246122303
0.036126191200505704      615.7248404642446
0.03632786023882611       616.4929443762243
0.03652952932442421       617.3036363481693
0.036731357802754806      618.1569163800798
0.03693350464234149       619.0527844719555
0.03713612806239678       619.9912406237968
0.03733848789969145       620.992858906568
0.037540373227224554      622.0151290899221
0.03774194158292153       623.0580511738591
0.03794335124849304       624.1216251583787
0.03814476087977932       625.2058510434813
0.03834632913270157       626.3107288291666
0.03854821428921239       627.4362585154349
0.038750573887637245      628.5824401022859
0.03895283596123875       629.7970691198609
0.039154623958694366      630.9982159114812
0.039356095285438375      632.1858804771467
0.03955740808971597       633.3600628168576
0.03975872089337115       634.5207629306137
0.03996019221824938       635.6679808184152
0.04016198021260023       636.8017164802619
0.04036424228186526       637.9219699161539
0.040566577948397485      639.0278923246468
0.040768439330593605      640.0984395020047
0.04096998391520435       641.1336114482276
0.04117136993220262       642.1334081633154
0.04137275598532357       643.0978296472682
0.04157430067821714       644.026875900086
0.04177616224060133       644.9205469217687
0.0419784981588055        645.7788427123164
0.04218078754816035       646.6213730795846
0.04238260269718259       647.3999233270742
0.04258410104946696       648.1144934547852
0.04278544079179545       648.7650834627177
0.04298678048479618       649.3516933508716
0.043188278689213704      649.874323119247
0.043390093592177985      650.3329727678439
0.04359238263785921       650.7276422966621
0.043794623705544454      651.1804635921975
0.04399639111513442       651.5633775147129
0.04419784215819482       651.8763840642084
0.04439913486792596       652.119483240684
0.044600427650446826      652.2926750441395
0.04480187891170468       652.3959594745751
0.045003646684386715      652.4293365319908
0.04520588825921017       652.3928062163865
