% Model:              brazing.mph
% Version:            COMSOL 5.3.0.223
% Date:               Oct 20 2018, 00:19
% Dimension:          1
% Nodes:              225
% Expressions:        1
% Description:        Line graph
% x                       Height
0                         649.6005570080015
2.02242572596226E-4       649.5897241587119
4.040113375593453E-4      649.5183239626878
6.054635867748898E-4      649.386356419929
8.067573541103817E-4      649.1938215304358
0.0010080510467017985     648.940719294208
0.001209503071861434      648.6270497112456
0.0014112714639836859     648.2528127815485
0.001613513515825394      647.818008505117
0.001815803045808458      647.4229792149304
0.0020176184164428694     646.983321264151
0.0022191170764546647     646.499034652779
0.0024204572175778446     645.970119380814
0.00262179740518867       645.3965754482563
0.002823296204553664      644.778402855106
0.0030251118070788686     644.1156016013628
0.003227401660948015      643.4081716870268
0.0034297372965816655     642.7199798971067
0.003631598594156443      641.9966675474004
0.0038331430353414214     641.2382346379081
0.004034528845142556      640.4446811686297
0.004235914622467191      639.6160071395652
0.004437458966299354      638.7522125507146
0.004639320101874085      637.8532974020778
0.004841655511239337      636.919261693655
0.005043918276497792      636.0578692228488
0.005245706959792293      635.1853701044732
0.0054471789681153834     634.3017643385283
0.00564849245128538       633.407051925014
0.005849805932728159      632.5012328639302
0.006051277935873691      631.5843071552772
0.00625306661055245       630.6562747990547
0.006455329363777148      629.7171357952627
0.0066576887471433525     628.8065861658556
0.0068595736811967985     627.9137409904613
0.007061141707903535      627.0386002690798
0.007262551112883539      626.1811640017111
0.007463960555734714      625.341432188355
0.007665528695965537      624.5194048290119
0.00786741381892875       623.7150819236814
0.0080697734661485        622.9284634723638
0.008272395437950266      622.2169400919533
0.008474540847339949      621.5284488448929
0.008676367906616744      620.8629897311822
0.008878035577337231      620.2205627508213
0.009079703197965442      619.6011679038103
0.009281530107084053      619.0048051901491
0.00948367526660416       618.4314746098378
0.009686296889411194      617.8811761628764
0.009888748367913874      617.5188277709243
0.010090724718905934      617.1940567513847
0.010292383720552634      616.9068631042574
0.010493883896490891      616.6572468295426
0.010695384145210549      616.4452079272403
0.010897043365029401      616.2707463973503
0.011099020079070253      616.1338622398729
0.011301472064648224      616.0345554548078
0.011503924099142101      616.0318355111896
0.011705900863193036      616.067791370874
0.011907560133099505      616.142423033861
0.012109060430962503      616.2557305001505
0.012310560654077738      616.4077137697427
0.012512219699917606      616.5983728426373
0.012714196091111104      616.8277077188345
0.012916647604829811      617.0957183983344
0.013119269382981878      617.5024494003814
0.013321414683399362      617.9399891145782
0.013523241722808088      618.4083375409249
0.013724909467002238      618.9074946794213
0.013926577258472442      619.4374605300677
0.014128404439597363      619.9982350928638
0.014330549975836581      620.5898183678096
0.01453317208336263       621.2122103549052
0.014735531766219815      621.8994006729063
0.014937416940401616      622.5995294330537
0.015138985143475461      623.3125966353476
0.015340394656791169      624.0386022797878
0.015541804135826716      624.7775463663744
0.015743372236141022      625.5294288951075
0.015945257239325793      626.2942498659867
0.01614761668334845       627.0720092790124
0.01634987940592303       627.9532466748627
0.016551668047823844      628.8228316805047
0.016753140015983766      629.680764295938
0.0169544534601584        630.5270445211629
0.017155766903708087      631.3616723561793
0.017357238869994664      632.1846478009871
0.017559027508778132      632.9959708555865
0.01776129022699866       633.7956415199774
0.017963625484858744      634.6223439579013
0.018165486461237414      635.4253112099591
0.018367030641941378      636.2045432761506
0.018568416255992027      636.960040156476
0.018769801906169285      637.6918018509352
0.018971346195167795      638.3998283595283
0.019173207351754082      639.0841196822553
0.019375542861313405      639.744675819116
0.019577832661189145      640.4238824842886
0.019779648217873542      641.0538160016837
0.019981146975907166      641.6344763713014
0.020182487123025287      642.1658635931415
0.020383827220813066      642.647977667204
0.020585325830972126      643.0808185934892
0.020787141141585735      643.4643863719966
0.020989430597769934      643.7986810027268
0.021191672662378012      644.2259031748655
0.021393441061935803      644.5926234373397
0.02159489309031221       644.8988417901493
0.021796186783028852      645.1445582332943
0.021997480548535182      645.3297727667748
0.022198932795108938      645.4544853905908
0.022400701557758636      645.518696104742
0.02260294412950465       645.5224049092288
0.02280539620920995       645.569880438161
0.023007373018156245      645.5546158838207
0.02320903233274668       645.4766112462079
0.023410532675187733      645.3358665253227
0.023612032942881025      645.1323817211648
0.023813692033404853      644.8661568337345
0.024015668469493705      644.5371918630317
0.024218120028423832      644.1454868090564
0.024420742013481003      643.769091328376
0.02462288751935683       643.3415286193722
0.02482471476325633       642.8627986820446
0.02502638271145666       642.3329015163935
0.025228050706933344      641.7518371224187
0.025429878092549915      641.1196055001204
0.025632023834248962      640.4362066494984
0.025834646148682177      639.701640570553
0.026037006051731277      638.9625852116374
0.026238891444565628      638.1852641618967
0.02644045986526205       637.369677421331
0.026641869595683754      636.5158249899399
0.02684327929182417       635.6237068677237
0.027044847609757647      634.6933230546824
0.02724673283158932       633.7246735508161
0.027449092495796006      632.7177583561246
0.02765135518998453       631.7327586738436
0.027853143803698084      630.7399988322421
0.028054615743803996      629.7394788313202
0.028255929159991804      628.7311986710778
0.028457242575555555      627.7151583515149
0.028658714513790734      626.6913578726314
0.028860503124391312      625.6597972344277
0.029062765814231884      624.6204764369035
0.029265100752448706      623.5869791093949
0.02946696141141544       622.5781797482147
0.029668505276199596      621.5940783533625
0.029869890575077548      620.6346749248389
0.03007127591008127       619.6999694626435
0.030272819883157453      618.7899619667763
0.03047468072232762       617.9046524372374
0.030677015912237836      617.0440408740268
0.030879305594778746      616.2544422586599
0.03108112103494649       615.5016068464246
0.031282619677010744      614.7855346373207
0.03148395970843373       614.1062256313484
0.0316852996905265        613.4636798285076
0.031886798184716555      612.8578972287984
0.032088613378814135      612.2888778322206
0.03229090271766436       611.7566216387744
0.03249314477533616       611.3947722174673
0.03269491316800606       611.0859930048638
0.03289636518952694       610.830284000964
0.03309765887540427       610.6276452057676
0.033298952634071295      610.4780766192749
0.033500404873789524      610.3815782414857
0.03370217362955133       610.3381500724001
0.03390441619436107       610.3477921120182
0.03410686840969767       610.4558312110541
0.03430884535332711       610.6171982042056
0.0345105048019665        610.8318930914725
0.034712005278138794      611.0999158728547
0.03491350567956333       611.4212665483524
0.03511516490413611       611.7959451179654
0.035317141474908095      612.2239515816938
0.03551959316946952       612.7052859395376
0.035722216260139425      613.3194236323434
0.03592436286389621       613.9743189911516
0.036126191200505704      614.6699720159621
0.03632786023882611       615.406382706775
0.03652952932442421       616.1835510635905
0.036731357802754806      617.0014770864082
0.03693350464234149       617.8601607752283
0.03713612806239678       618.7596021300509
0.03733848789969145       619.7166221506652
0.037540373227224554      620.6935894412358
0.03774194158292153       621.6905040017626
0.03794335124849304       622.7073658322458
0.03814476087977932       623.7441749326853
0.03834632913270157       624.800931303081
0.03854821428921239       625.877634943433
0.038750573887637245      626.9742858537414
0.03895283596123875       628.1300595147518
0.039154623958694366      629.2731862183094
0.039356095285438375      630.4036659644145
0.03955740808971597       631.5214987530667
0.03975872089337115       632.6266845842662
0.03996019221824938       633.7192234580128
0.04016198021260023       634.7991153743069
0.04036424228186526       635.8663603331482
0.040566577948397485      636.9206493903409
0.040768439330593605      637.9410192870763
0.04096998391520435       638.9274700233544
0.04117136993220262       639.8800015991752
0.04137275598532357       640.7986140145387
0.04157430067821714       641.6833072694446
0.04177616224060133       642.5340813638937
0.0419784981588055        643.3509362978851
0.04218078754816035       644.1502222130877
0.04238260269718259       644.8895154179419
0.04258410104946696       645.5688159124479
0.04278544079179545       646.1881236966055
0.04298678048479618       646.747438770415
0.043188278689213704      647.246761133876
0.043390093592177985      647.686090786989
0.04359238263785921       648.0654277297537
0.043794623705544454      648.4884392595898
0.04399639111513442       648.8454163979815
0.04419784215819482       649.1363591449291
0.04439913486792596       649.3612675004322
0.044600427650446826      649.520141464491
0.04480187891170468       649.6129810371054
0.045003646684386715      649.6397862182756
0.04520588825921017       649.6005570080015
