% Model:              brazing.mph
% Version:            COMSOL 5.3.0.223
% Date:               Oct 20 2018, 01:19
% Dimension:          1
% Nodes:              225
% Expressions:        1
% Description:        Line graph
% x                       Height
0                         652.6937322513901
2.1191841480136804E-4     652.6045429081677
4.2353438892247565E-4     652.4765321324628
6.349689892252786E-4      652.3096999242754
8.463435942227858E-4      652.1040462836056
0.001057779685752053      651.8595712104536
0.001269398639759412      651.5762747048188
0.001481321517995422      651.2541567667017
0.0017252358262731596     650.8234889514691
0.0019686866163640313     650.362648597419
0.0022118589563155885     649.8716357045514
0.002454938550168189      649.3504502728662
0.0026981113144448556     648.7990923023635
0.0029415629522145732     648.2175617930432
0.0031854785295931678     647.6058587449054
0.0034450106912723537     646.8469211613706
0.0037039863009040125     646.0571611397248
0.003962627412610827      645.2365786799679
0.0042211569424298        644.3851737821002
0.004479798094906585      643.5029464461219
0.004738773785972872      642.5898966720322
0.004998306069542035      641.6460244598318
0.005274868491808245      640.5338468261348
0.005550758931995686      639.404989500267
0.0058262454501036105     638.2594524822282
0.006101597285810183      637.0972357720185
0.006377084073678616      635.9183393696384
0.006652975052596927      634.7227632750869
0.006929538280995558      633.5105074883649
0.007206101510950518      632.2490122204435
0.007481992491406557      631.0056592394675
0.007757479280801014      629.7804485454367
0.00803283111802884       628.5733801383511
0.008308317637660222      627.3844540182109
0.008584208079380276      626.2136701850159
0.008860770503195153      625.0610286387662
0.009120302815147717      623.9769358857977
0.00937927853441616       622.9349183642842
0.009637919714987194      621.9349760742253
0.009896449272866283      620.9771090156213
0.010155090412673047      620.0613171884725
0.010414066050518256      619.187600592778
0.01067359824059789       618.3559592285386
0.010917512776055054      617.5981946602075
0.011160965100129169      616.8923429571443
0.011404139717480647      616.2384041193486
0.01164722176512739       615.6363781468209
0.011890396591516505      615.0862650395612
0.012133849333188814      614.588064797569
0.012377764493855997      614.1417774208447
0.01258968694000722       613.7971857757217
0.012801305803204788      613.4938524133509
0.013012742322906452      613.231777333732
0.013224118052332232      613.0109605368652
0.01343555464954572       612.831402022751
0.013647173667633327      612.6931017913886
0.013859096345786744      612.5960598427785
0.014071014760598048      612.5572759127082
0.014282630734729056      612.558912728908
0.01449406533504172       612.6009702913782
0.014705439940049088      612.6834486001187
0.014916876031588231      612.8063476551298
0.015128494985605482      612.9696674564108
0.015340417863851432      613.1734080039623
0.01558433217214941       613.4263777704189
0.015827782962260412      613.7386875865552
0.016070955302232025      614.1103374523711
0.016314034896104664      614.541327367867
0.0165572076604014        615.0316573330427
0.01680065929819124       615.581327347898
0.01704457487559009       616.1903374124331
0.01730410703726679       616.8540940061539
0.017563082646895985      617.5588964148433
0.01782172375860034       618.3047446385009
0.018080253288416847      619.0916386771269
0.01833889444089119       619.9195785307217
0.018597870131955005      620.7885641992843
0.018857402415521692      621.6985956828157
0.019133964837753384      622.6715301688155
0.019409855277906563      623.66355462942
0.019685341795980367      624.6746690646293
0.019960693631652874      625.7048734744434
0.0202361804194872        626.7541678588624
0.020512071398371242      627.8225522178861
0.020788634626735362      628.9100265515148
0.02106519785666259       629.9659243920307
0.021341088837091095      631.0103858911976
0.021616575626458134      632.0434110490156
0.02189192746365859       633.0649998654845
0.022167413983262562      634.075152340605
0.02244330442495508       635.0738684743761
0.022719866848742224      636.0611482667985
0.022979399160698737      636.8815809817567
0.023238374879971102      637.6812206467233
0.023497016060546046      638.4600672616983
0.023755545618429033      639.2181208266817
0.02401418675823971       639.9553813416736
0.024273162396088833      640.6718488066738
0.024532694586172417      641.3675232216824
0.02477660912165014       641.9384332443067
0.02502006144574469       642.4763767559714
0.025263236063116538      642.9813537566763
0.025506318110783622      643.4533642464219
0.025749492937193107      643.892408225208
0.02599294567888585       644.2984856930341
0.026236860839573585      644.671596649901
0.026448783285734738      644.938968960648
0.02666040214894219       645.189380511243
0.026871838668653707      645.4228313016854
0.027083214398089334      645.6393213319757
0.027294650995312687      645.8388506021138
0.027506270013410168      646.0214191120994
0.02771819269157351       646.1870268619327
0.02793011110637494       646.2574531745432
0.028141727080496122      646.3095456166568
0.028353161680798985      646.3433041882737
0.028564536285796558      646.3587288893935
0.028775972377325904      646.3558197200169
0.028987591331333325      646.3345766801431
0.029199514209569403      646.2949997697726
0.02944342851784522       646.1153431389101
0.02968687930793418       645.892965451836
0.02993005164788383       645.6278667085502
0.030173131241734534      645.3200469090527
0.0304163040060093        644.9695060533442
0.0306597556437771        644.5762441414236
0.030903671221153783      644.1402611732917
0.031163203382828072      643.5114751734246
0.03142217899245488       642.8381402251066
0.03168082010415685       642.1202563283375
0.03193934963397098       641.3578234831175
0.032197990786442934      640.550841689447
0.03245696647750436       639.699310947325
0.032716498761068635      638.8032312567524
0.03299306118333142       637.6638839498946
0.03326895162351545       636.5044646219416
0.03354443814161999       635.3249732728931
0.03381978997732317       634.1254099027493
0.034095276765188226      632.9057745115105
0.03437116774410313       631.6660670991758
0.03464773097249833       630.4062876657462
0.034924294202460265      629.0651173760436
0.03520018518292322       627.7454521825807
0.03547567197232456       626.4472920853573
0.035751023809559274      625.1706370843738
0.036026510329197556      623.9154871796302
0.036302400770924524      622.681842371126
0.03657896319474637       621.4697026588616
0.036838495506703706      620.3259214481693
0.03709747122597688       619.235770927027
0.037356112406552636      618.1992510954342
0.03761464196443644       617.2163619533911
0.03787328310424792       616.2871035008981
0.03813225874209787       615.4114757379542
0.03839179093218227       614.5894786645603
0.03863570546763781       613.8444577876505
0.038879157791710306      613.1641450893667
0.03912233240906017       612.5485405697085
0.03936541445670531       611.997644228676
0.039608589283092806      611.5114560662697
0.039852042024763494      611.0899760824886
0.04009595718542905       610.7332042773337
0.040307879631580334      610.4587473563663
0.04051949849477797       610.2358357818883
0.0407309350144797        610.0644695538997
0.040942310743905544      609.9446486724004
0.04115374734111909       609.8763731373908
0.04136536635920676       609.8596429488703
0.04157728903736024       609.8944581068394
0.04178920745215007       609.9872994602574
0.042000823426259694      610.1301843824781
0.042212258026551035      610.3231128735013
0.04242363263153709       610.566084933327
0.0426350687230549        610.8591005619556
0.042846687677050764      611.2021597593865
0.04305861055527523       611.59526252562
0.04330252486354604       612.0741989997312
0.043545975653630026      612.6214465798419
0.04378914799357473       613.2370052659518
0.044032227587420474      613.9208750580611
0.04427540035169028       614.6730559561702
0.04451885198945311       615.4935479602782
0.044762767566824783      616.3823510703859
0.045022299728516735      617.3575121243073
0.04528127533816108       618.3800991608396
0.045539916449880535      619.4501121799824
0.045798445979712124      620.567551181736
0.046057087132201545      621.7324161661006
0.04631606282328052       622.9447071330757
0.046575595106862454      624.2044240826617
0.04685215752913061       625.542889265743
0.04712804796931999       626.9058841293429
0.04740353448742985       628.2934086734613
0.04767888632313835       629.7054628980982
0.04795437311100872       631.1420468032541
0.048230264089928976      632.6031603889282
0.048506827318329566      634.0888036551211
0.04878339054829114       635.4923256344056
0.049059281528753745      636.8764318457007
0.04933476831815475       638.2411222890065
0.0496101201553891        639.5863969643231
0.04988560667502701       640.9122558716508
0.05016149711675364       642.2186990109889
0.050438059540575134      643.5057263823379
0.05069759185254397       644.5349235514531
0.05095656757182859       645.5183584409409
0.05121520875241573       646.4560310508014
0.05147373831031092       647.3479413810344
0.051732379450133786      648.1940894316402
0.05199135508799517       648.9944752026184
0.05225088727809108       649.7490986939695
0.0524948018135407        650.3352769365342
0.052738254137607306      650.8627657555015
0.05298142875495131       651.3315651508711
0.05322451080259058       651.7416751226431
0.0534676856289722        652.0930956708178
0.05371113837063701       652.3858267953945
0.05395505353129665       652.6198684963738
0.05416697597743634       652.7544099166225
0.054378594840622414      652.8476215184558
0.05459003136031263       652.8995033018736
0.05480140708972696       652.9100552668758
0.05501284368692898       652.8792774134629
0.0552244627050051        652.8071697416341
0.05543638538314697       652.6937322513901
