% Model:              brazing.mph
% Version:            COMSOL 5.3.0.223
% Date:               Oct 20 2018, 03:05
% Dimension:          1
% Nodes:              161
% Expressions:        1
% Description:        Line graph
% x                       Height
0                         616.4044893041417
1.9693985890610136E-4     616.35981069396
3.9298030043864816E-4     616.3282008009076
5.884188308682271E-4      616.3096596249846
7.835557095112735E-4      616.3041871661911
9.786925881542028E-4      616.3117834245271
0.0011741311185834375     616.3324483999925
0.0013701715601154056     616.3661820925873
0.0015671114190207022     616.4129845023117
0.0017642608961497635     616.1776565311897
0.0019605081241513326     615.9389348065478
0.0021561515411346144     615.6968193283863
0.002351492352702621      615.4513100967048
0.0025468331642698894     615.2024071115036
0.0027424765812509564     614.9501103727827
0.0029387238092488436     614.6944198805418
0.0031358732863727766     614.4353356347812
0.0033326885608882563     614.0784842919275
0.0035286060983021257     613.7260308812001
0.0037239228519497995     613.3779754025994
0.003918938519653848      613.0343178561251
0.004113954187357973      612.6950582417774
0.004309270941005876      612.3601965595561
0.004505188478420127      612.0297328094614
0.004702003752936137      611.7036669914932
0.004899138702461749      611.3685132153536
0.005095371599302965      611.0488209153502
0.005291000816927052      610.744590091483
0.005486327495291825      610.4558207437522
0.005681654173656831      610.1825128721575
0.0058772833912816074     609.924666476699
0.0060735162881239745     609.6822815573768
0.006270651237651189      609.4553581141907
0.006467582778148322      609.2866526252087
0.006663615013526554      609.1496490608483
0.006859045413116663      609.0443474211097
0.0070541741987231454     608.9707477059928
0.007249302984329781      608.9288499154977
0.007444733383920351      608.9186540496243
0.007640765619299351      608.9401601083725
0.007837697159797551      608.9933680917426
0.008034634474091872      608.9860752670722
0.008230672405352359      609.0148666879927
0.008426108448549354      609.0797423545044
0.008621242851524007      609.1807022666072
0.008816377254498534      609.317746424301
0.009011813297695145      609.490874827586
0.009207851228955002      609.700087476462
0.00940478854324844       609.9453843709291
0.00960192671152544       610.2536321836382
0.00979816278359587       610.5758313845774
0.009993795147248338      610.9119819737467
0.010189124956984269      611.2620839511461
0.010384454766719743      611.6261373167756
0.010580087130370853      612.0041420706351
0.010776323202439026      612.3960982127248
0.01097346137071288       612.8020057430446
0.011170281912174305      613.1665036490157
0.011366204645540166      613.5405555659365
0.011561526547508357      613.9241614938076
0.011756547339625332      614.3173214326284
0.011951568131742307      614.7200353823993
0.0121468900337105        615.13230334312
0.012342812767076368      615.5541253147909
0.0125396333085378        615.9855012974116
0.012736771215691979      616.2668354976644
0.012933007030171178      616.5468385761137
0.013128639138602195      616.8255105327592
0.013323968694306592      617.102851367601
0.013519298250011432      617.3788610806391
0.013714930358443784      617.6535396718735
0.0139111661729252        617.9268871413042
0.014108304080082462      618.1989034889311
0.014305241249097643      618.1913274333806
0.014501279037039759      618.1887462489448
0.014696714938233999      618.191159935624
0.014891849199866372      618.198568493418
0.015086983461498874      618.2109719223268
0.015282419362693495      618.2283702223507
0.01547845715063625       618.2507633934894
0.015675394319652317      618.2781514357429
0.015872325504405583      617.9089267856152
0.01606835738884011       617.5469040931191
0.016263787440706973      617.1920833582542
0.016458915880206496      616.8444645810208
0.016654044319705866      616.5040477614189
0.016849474371572262      616.1708328994482
0.017045506256006017      615.8448199951091
0.017242437440758204      615.5260090484014
0.01743957168037589       614.9820806310729
0.017635803876907424      614.4290538799623
0.01783143240066149       613.8669287950696
0.018026758388388308      613.2957053763947
0.01822208437611492       612.7153836239377
0.01841771289986836       612.1259635376985
0.018613945096398854      611.5274451176772
0.018811079336015085      610.9198283638736
0.019007894687321662      610.2802312401557
0.01920381230049143       609.6420923339322
0.019399129129200405      609.0054116452029
0.01959414487161704       608.3701891739681
0.01978916061403359       607.7364249202277
0.01998447744274231       607.1041188839815
0.020180395055911654      606.4732710652298
0.020377210407217645      605.8438814639725
0.020574360469106157      605.2831437992089
0.020770608273960874      604.7417004656655
0.020966252262493188      604.2195514633424
0.021161593642948652      603.7166967922396
0.021356935023404883      603.2331364523571
0.021552579011939476      602.7688704436947
0.021748826816797996      602.3238987662527
0.021945976878691802      601.8982214200308
0.022142917141692885      601.5794736236631
0.022338957981867254      601.3023530296517
0.022534396907280062      601.066859637997
0.02272953417907009       600.8729934486988
0.02292467145086023       600.7207544617572
0.02312011037627338       600.610142677172
0.02331615121644832       600.5411580949435
0.023513091479450195      600.5138007150715
0.023710025135207962      600.4444825227728
0.02390605945730262       600.4222941884175
0.024101491924457957      600.4472357120056
0.024296622768016963      600.5193070935371
0.024491753611575823      600.6385083330122
0.02468718607873073       600.8048394304308
0.024883220400824673      601.0183003857927
0.025080154056581445      601.2788911990982
0.025277299572591536      601.6525456591061
0.025473542893039384      602.0459053186825
0.02566918243840792       602.4589701778275
0.025864519396400307      602.891740236541
0.026059856354392216      603.3442154948231
0.026255495899759323      603.8163959526737
0.026451739220204794      604.308281610093
0.026648884736211575      604.8198724670808
0.02684569473774919       605.3831345500014
0.027041607073256636      605.9513124024743
0.027236918672681274      606.5244060244994
0.027431929210095855      607.1024154160766
0.027626939747510428      607.6853405772061
0.027822251346935042      608.2731815078878
0.028018163682442445      608.8659382081216
0.028214973683980002      609.4636106779077
0.028412120943583204      610.0372564279911
0.028608365984047285      610.5998230776014
0.02880400723361381       611.1513106267388
0.02899934588786498       611.6917190754034
0.02919468454211669       612.2210484235949
0.029390325791684838      612.7392986713136
0.02958657083215161       613.2464698185594
0.029783718091758563      613.742561865332
0.029980652759780888      614.068668329222
0.030176688080480362      614.3966703548151
0.030372121537075924      614.7265679421115
0.03056725336547531       615.0583610911111
0.030762385193874833      615.392049801814
0.030957818650470807      615.72763407422
0.031153853971170976      616.0651139083293
0.031350788639194264      616.4044893041417
