% Model:              brazing.mph
% Version:            COMSOL 5.3.0.223
% Date:               Oct 20 2018, 02:44
% Dimension:          1
% Nodes:              225
% Expressions:        1
% Description:        Line graph
% x                       Height
0                         658.8690984703559
2.1191841480136804E-4     658.7743675121245
4.2353438892247565E-4     658.640226608779
6.349689892252786E-4      658.4666757603195
8.463435942227858E-4      658.2537149667457
0.001057779685752053      658.0013442280582
0.001269398639759412      657.7095635442562
0.001481321517995422      657.3783729153403
0.0017252358262731596     656.9359742462539
0.0019686866163640313     656.4631651449623
0.0022118589563155885     655.9599456114654
0.002454938550168189      655.4263156457632
0.0026981113144448556     654.8622752478561
0.0029415629522145732     654.2678244177436
0.0031854785295931678     653.642963155426
0.0034450106912723537     652.8667696532917
0.0037039863009040125     652.0595312950522
0.003962627412610827      651.2212480807071
0.0042211569424298        650.3519200102568
0.004479798094906585      649.4515470837011
0.004738773785972872      648.5201293010399
0.004998306069542035      647.5576666622735
0.005274868491808245      646.4207132289291
0.005550758931995686      645.2668861932389
0.0058262454501036105     644.0961855552027
0.006101597285810183      642.9086113148207
0.006377084073678616      641.7041634720932
0.006652975052596927      640.4828420270194
0.006929538280995558      639.2446469795999
0.007206101510950518      637.9537106281052
0.007481992491406557      636.6813559138435
0.007757479280801014      635.4275828368146
0.00803283111802884       634.1923913970187
0.008308317637660222      632.9757815944561
0.008584208079380276      631.7777534291259
0.008860770503195153      630.598306901029
0.009120302815147717      629.4882319414827
0.00937927853441616       628.4212222970359
0.009637919714987194      627.3972779676885
0.009896449272866283      626.4163989534406
0.010155090412673047      625.4785852542924
0.010414066050518256      624.5838368702434
0.01067359824059789       623.732153801294
0.010917512776055054      622.9562026854951
0.011160965100129169      622.2334096040067
0.011404139717480647      621.5637745568289
0.01164722176512739       620.9472975439616
0.011890396591516505      620.3839785654052
0.012133849333188814      619.8738176211589
0.012377764493855997      619.4168147112233
0.01258968694000722       619.0642101965976
0.012801305803204788      618.7538223389215
0.013012742322906452      618.4856511381952
0.013224118052332232      618.2596965944184
0.01343555464954572       618.0759587075916
0.013647173667633327      617.934437477714
0.013859096345786744      617.8351329047864
0.014071014760598048      617.7958114563987
0.014282630734729056      617.7978598966322
0.01449406533504172       617.8412782254868
0.014705439940049088      617.9260664429626
0.014916876031588231      618.0522245490598
0.015128494985605482      618.2197525437779
0.015340417863851432      618.4286504271173
0.01558433217214941       618.6881399723851
0.015827782962260412      619.008343678608
0.016070955302232025      619.3892615457853
0.016314034896104664      619.8308935739177
0.0165572076604014        620.3332397630052
0.01680065929819124       620.8963001130471
0.01704457487559009       621.520074624044
0.01730410703726679       622.2000730461218
0.017563082646895985      622.9221686403747
0.01782172375860034       623.6863614068028
0.018080253288416847      624.4926513454061
0.01833889444089119       625.3410384561847
0.018597870131955005      626.2315227391382
0.018857402415521692      627.1641041942671
0.019133964837753384      628.1595297842473
0.019409855277906563      629.1746491541297
0.019685341795980367      630.2094623039145
0.019960693631652874      631.2639692336016
0.0202361804194872        632.3381699431914
0.020512071398371242      633.4320644326832
0.020788634626735362      634.5456527020775
0.02106519785666259       635.6230234161247
0.021341088837091095      636.688996718029
0.021616575626458134      637.74357260779
0.02189192746365859       638.7867510854082
0.022167413983262562      639.8185321508836
0.02244330442495508       640.8389158042155
0.022719866848742224      641.8479020454047
0.022979399160698737      642.6832476956295
0.023238374879971102      643.4981691836795
0.023497016060546046      644.2926665095548
0.023755545618429033      645.0667396732554
0.02401418675823971       645.8203886747815
0.024273162396088833      646.5536135141326
0.024532694586172417      647.2664141913092
0.02477660912165014       647.8491066689874
0.02502006144574469       648.398678447121
0.025263236063116538      648.9151295257099
0.025506318110783622      649.3984599047538
0.025749492937193107      649.8486695842537
0.02599294567888585       650.2657585642085
0.026236860839573585      650.6497268446187
0.026448783285734738      650.9245936502243
0.02666040214894219       651.1826526529378
0.026871838668653707      651.423903852759
0.027083214398089334      651.6483472496881
0.027294650995312687      651.8559828437252
0.027506270013410168      652.0468106348696
0.02771819269157351       652.2208306231221
0.02793011110637494       652.2965723758756
0.028141727080496122      652.353935222476
0.028353161680798985      652.3929191629231
0.028564536285796558      652.4135241972169
0.028775972377325904      652.4157503253577
0.028987591331333325      652.3995975473449
0.029199514209569403      652.3650658631791
0.02944342851784522       652.1868241837132
0.02968687930793418       651.9648802926508
0.02993005164788383       651.6992341899917
0.030173131241734534      651.389885875736
0.0304163040060093        651.0368353498842
0.0306597556437771        650.6400826124353
0.030903671221153783      650.1996276633901
0.031163203382828072      649.5601865050293
0.03142217899245488       648.8754752991198
0.03168082010415685       648.1454940456612
0.03193934963397098       647.3702427446536
0.032197990786442934      646.5497213960977
0.03245696647750436       645.6839299999924
0.032716498761068635      644.7728685563384
0.03299306118333142       643.608314233015
0.03326895162351545       642.4236191379075
0.03354443814161999       641.2187832710162
0.03381978997732317       639.9938066323406
0.034095276765188226      638.7486892218814
0.03437116774410313       637.4834310396379
0.03464773097249833       636.1980320856105
0.034924294202460265      634.8236244943095
0.03520018518292322       633.4715744362959
0.03547567197232456       632.1418819115696
0.035751023809559274      630.8345469201308
0.036026510329197556      629.5495694619797
0.036302400770924524      628.2869495371156
0.03657896319474637       627.0466871455391
0.036838495506703706      625.8742845099008
0.03709747122597688       624.7568417302061
0.037356112406552636      623.6943588064547
0.03761464196443644       622.6868357386469
0.03787328310424792       621.7342725267825
0.03813225874209787       620.8366691708616
0.03839179093218227       619.9940256708841
0.03863570546763781       619.2302316313894
0.038879157791710306      618.5326930911194
0.03912233240906017       617.9014100500741
0.03936541445670531       617.3363825082535
0.039608589283092806      616.8376104656579
0.039852042024763494      616.4050939222866
0.04009595718542905       616.0388328781403
0.040307879631580334      615.7570865999697
0.04051949849477797       615.528126933867
0.0407309350144797        615.3519538798321
0.040942310743905544      615.2285674378647
0.04115374734111909       615.1579676079654
0.04136536635920676       615.1401543901334
0.04157728903736024       615.1751277843694
0.04178920745215007       615.2696637698864
0.042000823426259694      615.4154581225914
0.042212258026551035      615.6125108424842
0.04242363263153709       615.8608219295647
0.0426350687230549        616.1603913838335
0.042846687677050764      616.5112192052895
0.04305861055527523       616.9133053939338
0.04330252486354604       617.4031622469054
0.043545975653630026      617.9630101209247
0.04378914799357473       618.5928490159913
0.044032227587420474      619.2926789321058
0.04427540035169028       620.0624998692681
0.04451885198945311       620.9023118274775
0.044762767566824783      621.8121148067349
0.045022299728516735      622.8103831231128
0.04528127533816108       623.8573768039184
0.045539916449880535      624.9530958491515
0.045798445979712124      626.0975402588123
0.046057087132201545      627.2907100329011
0.04631606282328052       628.5326051714171
0.046575595106862454      629.823225674361
0.04685215752913061       631.1922715174311
0.04712804796931999       632.5868086291047
0.04740353448742985       634.0068370093816
0.04767888632313835       635.4523566582619
0.04795437311100872       636.923367575746
0.048230264089928976      638.4198697618333
0.048506827318329566      639.9418632165241
0.04878339054829114       641.374272128895
0.049059281528753745      642.7871250346329
0.04933476831815475       644.1804219337378
0.0496101201553891        645.5541628262098
0.04988560667502701       646.908347712049
0.05016149711675364       648.242976591255
0.050438059540575134      649.5580494638283
0.05069759185254397       650.6057259273641
0.05095656757182859       651.6067598452664
0.05121520875241573       652.561151217535
0.05147373831031092       653.4689000441703
0.051732379450133786      654.3300063251723
0.05199135508799517       655.1444700605407
0.05225088727809108       655.9122912502756
0.0524948018135407        656.5068121686
0.052738254137607306      657.0414308488065
0.05298142875495131       657.5161472908951
0.05322451080259058       657.9309614948656
0.0534676856289722        658.2858734607187
0.05371113837063701       658.5808831884534
0.05395505353129665       658.8159906780704
0.05416697597743634       658.9499053202024
0.054378594840622414      659.0417106907802
0.05459003136031263       659.0914067898037
0.05480140708972696       659.098993617273
0.05501284368692898       659.0644711731884
0.0552244627050051        658.9878394575491
0.05543638538314697       658.8690984703559
