% Model:              brazing.mph
% Version:            COMSOL 5.3.0.223
% Date:               Oct 20 2018, 00:10
% Dimension:          1
% Nodes:              225
% Expressions:        1
% Description:        Line graph
% x                       Height
0                         666.5170229573617
2.02242572596226E-4       666.5080473071486
4.040113375593453E-4      666.440334560121
6.054635867748898E-4      666.3138847162792
8.067573541103817E-4      666.128697775623
0.0010080510467017985     665.8847737381524
0.001209503071861434      665.5821126038677
0.0014112714639836859     665.2207143727684
0.001613513515825394      664.800579044855
0.001815803045808458      664.4207888778761
0.0020176184164428694     663.9976686456239
0.0022191170764546647     663.5312183480984
0.0024204572175778446     663.0214379852995
0.00262179740518867       662.4683275572272
0.002823296204553664      661.8718870638817
0.0030251118070788686     661.2321165052628
0.003227401660948015      660.5490158813707
0.0034297372965816655     659.884325514382
0.003631598594156443      659.185591722381
0.0038331430353414214     658.4528145053679
0.004034528845142556      657.6859938633424
0.004235914622467191      656.8851297963049
0.004437458966299354      656.0502223042549
0.004639320101874085      655.1812713871929
0.004841655511239337      654.2782770451186
0.005043918276497792      653.4465905523865
0.005245706959792293      652.6040998679429
0.0054471789681153834     651.750804991788
0.00564849245128538       650.8867059239215
0.005849805932728159      650.0118026643436
0.006051277935873691      649.1260952130542
0.00625306661055245       648.2295835700533
0.006455329363777148      647.3222677353409
0.0066576887471433525     646.442050538071
0.0068595736811967985     645.5789306671057
0.007061141707903535      644.7329081224451
0.007262551112883539      643.9039829040893
0.007463960555734714      643.092155012038
0.007665528695965537      642.2974244462914
0.00786741381892875       641.5197912068493
0.0080697734661485        640.7592552937119
0.008272395437950266      640.0715816488795
0.008474540847339949      639.4059144351402
0.008676367906616744      638.7622536524939
0.008878035577337231      638.1405993009407
0.009079703197965442      637.5409513804806
0.009281530107084053      636.9633098911133
0.00948367526660416       636.4076748328393
0.009686296889411194      635.8740462056583
0.009888748367913874      635.5239734164862
0.010090724718905934      635.2100355306054
0.010292383720552634      634.9322325480158
0.010493883896490891      634.6905644687175
0.010695384145210549      634.4850312927103
0.010897043365029401      634.3156330199945
0.011099020079070253      634.1823696505699
0.011301472064648224      634.0852411844364
0.011503924099142101      634.0813848366631
0.011705900863193036      634.1147348012231
0.011907560133099505      634.1852910781163
0.012109060430962503      634.2930536673425
0.012310560654077738      634.438022568902
0.012512219699917606      634.6201977827948
0.012714196091111104      634.8395793090208
0.012916647604829811      635.0961671475799
0.013119269382981878      635.4881698408557
0.013321414683399362      635.9098075089879
0.013523241722808088      636.3610801519769
0.013724909467002238      636.8419877698223
0.013926577258472442      637.3525303625242
0.014128404439597363      637.8927079300828
0.014330549975836581      638.4625204724978
0.01453317208336263       639.0619679897693
0.014735531766219815      639.7240307136128
0.014937416940401616      640.3984879107285
0.015138985143475461      641.0853395811166
0.015340394656791169      641.7845857247768
0.015541804135826716      642.4962263417093
0.015743372236141022      643.2202614319141
0.015945257239325793      643.9566909953911
0.01614761668334845       644.7055150321405
0.01634987940592303       645.5558976414749
0.016551668047823844      646.3949867420587
0.016753140015983766      647.2227823338919
0.0169544534601584        648.0392844169746
0.017155766903708087      648.8444929913068
0.017357238869994664      649.6384080568884
0.017559027508778132      650.4210296137194
0.01776129022699866       651.1923576618
0.017963625484858744      651.9892909606139
0.018165486461237414      652.7633917147574
0.018367030641941378      653.5146599242306
0.018568416255992027      654.2430955890334
0.018769801906169285      654.9486987091658
0.018971346195167795      655.6314692846279
0.019173207351754082      656.2914073154195
0.019375542861313405      656.9285128015407
0.019577832661189145      657.5831263283524
0.019779648217873542      658.1900294473687
0.019981146975907166      658.7492221585896
0.020182487123025287      659.2607044620155
0.020383827220813066      659.724476357646
0.020585325830972126      660.1405378454813
0.020787141141585735      660.5088889255212
0.020989430597769934      660.8295295977658
0.021191672662378012      661.2418035415604
0.021393441061935803      661.5954600146091
0.02159489309031221       661.8904990169118
0.021796186783028852      662.1269205484685
0.021997480548535182      662.3047246092793
0.022198932795108938      662.4239111993444
0.022400701557758636      662.4844803186631
0.02260294412950465       662.4864319672363
0.02280539620920995       662.5306162819683
0.023007373018156245      662.514043486531
0.02320903233274668       662.4367135809244
0.023410532675187733      662.2986265651487
0.023612032942881025      662.0997824392036
0.023813692033404853      661.8401812030893
0.024015668469493705      661.5198228568057
0.024218120028423832      661.1387074003529
0.024420742013481003      660.7749810234429
0.02462288751935683       660.361738291073
0.02482471476325633       659.8989792032432
0.02502638271145666       659.3867037599537
0.025228050706933344      658.8249119612042
0.025429878092549915      658.2136038069948
0.025632023834248962      657.5527792973255
0.025834646148682177      656.8424384321964
0.026037006051731277      656.1281423007368
0.026238891444565628      655.3768675313488
0.02644045986526205       654.5886141240328
0.026641869595683754      653.7633820787884
0.02684327929182417       652.9011713956157
0.027044847609757647      652.0019820745148
0.02724673283158932       651.0658141154859
0.027449092495796006      650.0926675185285
0.02765135518998453       649.1421825222654
0.027853143803698084      648.1841986661548
0.028054615743803996      647.2187159501965
0.028255929159991804      646.2457343743907
0.028457242575555555      645.2652539387375
0.028658714513790734      644.2772746432366
0.028860503124391312      643.2817964878882
0.029062765814231884      642.2788194726924
0.029265100752448706      641.2812368582316
0.02946696141141544       640.3075565025244
0.029668505276199596      639.3577784055711
0.029869890575077548      638.4319025673715
0.03007127591008127       637.5299289879255
0.030272819883157453      636.6518576672335
0.03047468072232762       635.7976886052949
0.030677015912237836      634.9674218021102
0.030879305594778746      634.2065065691855
0.03108112103494649       633.4807907650771
0.031282619677010744      632.7902743897846
0.03148395970843373       632.1349574433082
0.0316852996905265        631.5148399256478
0.031886798184716555      630.9299218368036
0.032088613378814135      630.3802031767752
0.03229090271766436       629.8656839455631
0.03249314477533616       629.5190393131661
0.03269491316800606       629.2234395476623
0.03289636518952694       628.9788846490518
0.03309765887540427       628.7853746173346
0.033298952634071295      628.6429094525106
0.033500404873789524      628.5514891545798
0.03370217362955133       628.5111137235424
0.03390441619436107       628.5217831593981
0.03410686840969767       628.6278160735825
0.03430884535332711       628.78512529964
0.0345105048019665        628.9937108375705
0.034712005278138794      629.2535726873739
0.03491350567956333       629.5647108490504
0.03511516490413611       629.9271253226
0.035317141474908095      630.3408161080224
0.03551959316946952       630.8057832053181
0.035722216260139425      631.401195010688
0.03592436286389621       632.0357857252922
0.036126191200505704      632.7095553491306
0.03632786023882611       633.4225038822035
0.03652952932442421       634.1746313245106
0.036731357802754806      634.9659376760521
0.03693350464234149       635.796422936828
0.03713612806239678       636.6660871068381
0.03733848789969145       637.5917133155193
0.037540373227224554      638.5364813271514
0.03774194158292153       639.5003911417344
0.03794335124849304       640.4834427592683
0.03814476087977932       641.4856361797531
0.03834632913270157       642.5069714031887
0.03854821428921239       643.5474484295751
0.038750573887637245      644.6070672589125
0.03895283596123875       645.7254527144966
0.039154623958694366      646.8315314177398
0.039356095285438375      647.9253033686422
0.03955740808971597       649.0067685672037
0.03975872089337115       650.0759270134243
0.03996019221824938       651.1327787073039
0.04016198021260023       652.1773236488427
0.04036424228186526       653.2095618380406
0.040566577948397485      654.2292055655417
0.040768439330593605      655.2161510120576
0.04096998391520435       656.1703981775881
0.04117136993220262       657.0919470621333
0.04137275598532357       657.9807976656931
0.04157430067821714       658.8369499882677
0.04177616224060133       659.6604040298569
0.0419784981588055        660.4511597904608
0.04218078754816035       661.2249611162132
0.04238260269718259       661.9406960788731
0.04258410104946696       662.5983646784404
0.04278544079179545       663.1979669149151
0.04298678048479618       663.7395027882973
0.043188278689213704      664.2229722985869
0.043390093592177985      664.6483754457839
0.04359238263785921       665.0157122298884
0.043794623705544454      665.4274529300982
0.04399639111513442       665.7751716705149
0.04419784215819482       666.0588684511386
0.04439913486792596       666.2785432719692
0.044600427650446826      666.4341961330068
0.04480187891170468       666.5258270342515
0.045003646684386715      666.5534359757031
0.04520588825921017       666.5170229573617
