% Model:              brazing.mph
% Version:            COMSOL 5.3.0.223
% Date:               Oct 20 2018, 03:18
% Dimension:          1
% Nodes:              161
% Expressions:        1
% Description:        Line graph
% x                       Height
0                         628.7464405091374
1.9693985890610136E-4     628.7146528457332
3.9298030043864816E-4     628.6942055175157
5.884188308682271E-4      628.6850985244853
7.835557095112735E-4      628.6873318666416
9.786925881542028E-4      628.7009055439848
0.0011741311185834375     628.7258195565149
0.0013701715601154056     628.762073904232
0.0015671114190207022     628.8096685871359
0.0017642608961497635     628.5707643712027
0.0019605081241513326     628.3269675815641
0.0021561515411346144     628.0782782182198
0.002351492352702621      627.82469628117
0.0025468331642698894     627.5662217704145
0.0027424765812509564     627.3028546859534
0.0029387238092488436     627.0345950277868
0.0031358732863727766     626.7614427959146
0.0033326885608882563     626.3887423158052
0.0035286060983021257     626.0201159836887
0.0037239228519497995     625.6555637995654
0.003918938519653848      625.2950857634348
0.004113954187357973      624.9386818752973
0.004309270941005876      624.5863521351529
0.004505188478420127      624.2380965430013
0.004702003752936137      623.8939150988429
0.004899138702461749      623.5414513240875
0.005095371599302965      623.2052046543495
0.005291000816927052      622.8851750896284
0.005486327495291825      622.5813626299247
0.005681654173656831      622.2937672752381
0.0058772833912816074     622.0223890255686
0.0060735162881239745     621.7672278809164
0.006270651237651189      621.5282838412812
0.006467582778148322      621.3498274632249
0.006663615013526554      621.2048411042344
0.006859045413116663      621.09332476431
0.0070541741987231454     621.0152784434515
0.007249302984329781      620.9707021416591
0.007444733383920351      620.9595958589326
0.007640765619299351      620.9819595952722
0.007837697159797551      621.0377933506778
0.008034634474091872      621.0333510960338
0.008230672405352359      621.0667433821297
0.008426108448549354      621.1379702089654
0.008621242851524007      621.247031576541
0.008816377254498534      621.3939274848562
0.009011813297695145      621.5786579339116
0.009207851228955002      621.8012229237066
0.00940478854324844       622.0616224542415
0.00960192671152544       622.3877098813657
0.00979816278359587       622.7283260544341
0.009993795147248338      623.0834709734468
0.010189124956984269      623.4531446384035
0.010384454766719743      623.8373470493045
0.010580087130370853      624.2360782061496
0.010776323202439026      624.6493381089389
0.01097346137071288       625.0771267576724
0.011170281912174305      625.4634995381334
0.011366204645540166      625.859060249122
0.011561526547508357      626.2638088906382
0.011756547339625332      626.677745462682
0.011951568131742307      627.1008699652533
0.0121468900337105        627.5331823983524
0.012342812767076368      627.974682761979
0.0125396333085378        628.4253710561333
0.012736771215691979      628.723919361506
0.012933007030171178      629.0195423825928
0.013128639138602195      629.3122401193936
0.013323968694306592      629.6020125719084
0.013519298250011432      629.8888597401373
0.013714930358443784      630.1727816240802
0.0139111661729252        630.4537782237371
0.014108304080082462      630.7318495391082
0.014305241249097643      630.7256889157701
0.014501279037039759      630.7224191490532
0.014696714938233999      630.7220402389574
0.014891849199866372      630.7245521854828
0.015086983461498874      630.7299549886294
0.015282419362693495      630.738248648397
0.01547845715063625       630.7494331647857
0.015675394319652317      630.7635085377957
0.015872325504405583      630.374968217095
0.01606835738884011       629.9916934057734
0.016263787440706973      629.613684103831
0.016458915880206496      629.2409403112678
0.016654044319705866      628.8734620280837
0.016849474371572262      628.5112492542788
0.017045506256006017      628.1543019898531
0.017242437440758204      627.8026202348066
0.01743957168037589       627.2221849147617
0.017635803876907424      626.6313320275627
0.01783143240066149       626.03006157321
0.018026758388388308      625.4183735517034
0.01822208437611492       624.7962679630429
0.01841771289986836       624.1637448072286
0.018613945096398854      623.5208040842602
0.018811079336015085      622.8674457941381
0.019007894687321662      622.1815459000588
0.01920381230049143       621.4974120665622
0.019399129129200405      620.8150442936484
0.01959414487161704       620.1344425813172
0.01978916061403359       619.4556069295688
0.01998447744274231       618.7785373384032
0.020180395055911654      618.1032338078203
0.020377210407217645      617.4296963378201
0.020574360469106157      616.8272935150939
0.020770608273960874      616.2459785895986
0.020966252262493188      615.6857515613343
0.021161593642948652      615.146612430301
0.021356935023404883      614.6285611964987
0.021552579011939476      614.1315978599274
0.021748826816797996      613.655722420587
0.021945976878691802      613.2009348784776
0.022142917141692885      612.8566932153389
0.022338957981867254      612.5572033795082
0.022534396907280062      612.3024653709856
0.02272953417907009       612.0924791897712
0.02292467145086023       611.9272448358649
0.02312011037627338       611.8067623092667
0.02331615121644832       611.7310316099766
0.023513091479450195      611.7000527379947
0.023710025135207962      611.6282090676723
0.02390605945730262       611.6066914657331
0.024101491924457957      611.635499932177
0.024296622768016963      611.7146344670042
0.024491753611575823      611.8440950702145
0.02468718607873073       612.023881741808
0.024883220400824673      612.2539944817847
0.025080154056581445      612.5344332901446
0.025277299572591536      612.9320527370029
0.025473542893039384      613.3512359987672
0.02566918243840792       613.7919830754373
0.025864519396400307      614.2542939670136
0.026059856354392216      614.7381686734959
0.026255495899759323      615.2436071948842
0.026451739220204794      615.7706095311785
0.026648884736211575      616.3191756823788
0.02684569473774919       616.9217368182133
0.027041607073256636      617.5297177984032
0.027236918672681274      618.1431186229486
0.027431929210095855      618.7619392918496
0.027626939747510428      619.386179805106
0.027822251346935042      620.015840162718
0.028018163682442445      620.6509203646855
0.028214973683980002      621.2914204110084
0.028412120943583204      621.9077972485062
0.028608365984047285      622.5119985468601
0.02880400723361381       623.10402430607
0.02899934588786498       623.6838745261357
0.02919468454211669       624.2515492070575
0.029390325791684838      624.8070483488351
0.02958657083215161       625.3503719514687
0.029783718091758563      625.8815200149583
0.029980652759780888      626.2396512270719
0.030176688080480362      626.5977778248024
0.030372121537075924      626.9558998081496
0.03056725336547531       627.3140171771136
0.030762385193874833      627.6721299316943
0.030957818650470807      628.0302380718919
0.031153853971170976      628.3883415977062
0.031350788639194264      628.7464405091374
