% Model:              brazing.mph
% Version:            COMSOL 5.3.0.223
% Date:               Oct 20 2018, 03:04
% Dimension:          1
% Nodes:              225
% Expressions:        1
% Description:        Line graph
% x                       Height
0                         601.1253721371767
2.1191841480136804E-4     601.0416625877258
4.2353438892247565E-4     600.9190992735312
6.349689892252786E-4      600.7576821945927
8.463435942227858E-4      600.5574113509105
0.001057779685752053      600.3182867424848
0.001269398639759412      600.0403083693151
0.001481321517995422      599.7234762314017
0.0017252358262731596     599.3007160385666
0.0019686866163640313     598.8466842121135
0.0022118589563155885     598.3613807520422
0.002454938550168189      597.8448056583529
0.0026981113144448556     597.296958931046
0.0029415629522145732     596.7178405701205
0.0031854785295931678     596.1074505755773
0.0034450106912723537     595.3573504174763
0.0037039863009040125     594.5756582481513
0.003962627412610827      593.7623740676023
0.0042211569424298        592.9174978758294
0.004479798094906585      592.041029672833
0.004738773785972872      591.1329694586123
0.004998306069542035      590.1933172331677
0.005274868491808245      589.0968623980696
0.005550758931995686      587.9834919500788
0.0058262454501036105     586.8532058891957
0.006101597285810183      585.70600421542
0.006377084073678616      584.5418869287522
0.006652975052596927      583.3608540291916
0.006929538280995558      582.1629055167388
0.007206101510950518      580.9239358411805
0.007481992491406557      579.7023511585286
0.007757479280801014      578.4981514687827
0.00803283111802884       577.3113367719432
0.008308317637660222      576.1419070680099
0.008584208079380276      574.9898623569827
0.008860770503195153      573.855202638862
0.009120302815147717      572.7913430594751
0.00937927853441616       571.7685350066297
0.009637919714987194      570.7867784803254
0.009896449272866283      569.8460734805625
0.010155090412673047      568.9464200073411
0.010414066050518256      568.0878180606607
0.01067359824059789       567.2702676405218
0.010917512776055054      566.5262531771516
0.011160965100129169      565.8331025163311
0.011404139717480647      565.1908156580602
0.01164722176512739       564.5993926023391
0.011890396591516505      564.0588333491678
0.012133849333188814      563.5691378985462
0.012377764493855997      563.1303062504742
0.01258968694000722       562.7906813696868
0.012801305803204788      562.4917312402039
0.013012742322906452      562.2334558620255
0.013224118052332232      562.0158552351517
0.01343555464954572       561.8389293595826
0.013647173667633327      561.7026782353178
0.013859096345786744      561.6071018623577
0.014071014760598048      561.5672088315496
0.014282630734729056      561.5671997389138
0.01449406533504172       561.6070745844503
0.014705439940049088      561.686833368159
0.014916876031588231      561.8064760900405
0.015128494985605482      561.9660027500938
0.015340417863851432      562.1654133483197
0.01558433217214941       562.4142420836419
0.015827782962260412      562.7209468737398
0.016070955302232025      563.0855277186131
0.016314034896104664      563.5079846182621
0.0165572076604014        563.9883175726868
0.01680065929819124       564.5265265818867
0.01704457487559009       565.1226116458624
0.01730410703726679       565.7737050523647
0.017563082646895985      566.464808915481
0.01782172375860034       567.1959232352112
0.018080253288416847      567.9670480115554
0.01833889444089119       568.7781832445139
0.018597870131955005      569.6293289340862
0.018857402415521692      570.5204850802726
0.019133964837753384      571.4781133141915
0.019409855277906563      572.4540041419349
0.019685341795980367      573.4481575635024
0.019960693631652874      574.4605735788944
0.0202361804194872        575.4912521881107
0.020512071398371242      576.5401933911511
0.020788634626735362      577.607397188016
0.02106519785666259       578.6521389585433
0.021341088837091095      579.6849724240512
0.021616575626458134      580.7058975845397
0.02189192746365859       581.7149144400088
0.022167413983262562      582.7120229904586
0.02244330442495508       583.6972232358888
0.022719866848742224      584.6705151762997
0.022979399160698737      585.4904945909644
0.023238374879971102      586.2878910493553
0.023497016060546046      587.0627045514719
0.023755545618429033      587.8149350973148
0.02401418675823971       588.5445826868837
0.024273162396088833      589.2516473201784
0.024532694586172417      589.9361289971995
0.02477660912165014       590.5054664893169
0.02502006144574469       591.0413397908576
0.025263236063116538      591.5437489018215
0.025506318110783622      592.0126938222085
0.025749492937193107      592.4481745520192
0.02599294567888585       592.8501910912527
0.026236860839573585      593.2187434399096
0.026448783285734738      593.4858416712282
0.02666040214894219       593.734094295065
0.026871838668653707      593.96350131142
0.027083214398089334      594.1740627202934
0.027294650995312687      594.3657785216851
0.027506270013410168      594.538648715595
0.02771819269157351       594.6926733020231
0.02793011110637494       594.7596070894032
0.028141727080496122      594.8064708833025
0.028353161680798985      594.8332646837209
0.028564536285796558      594.8399884906587
0.028775972377325904      594.8266423041157
0.028987591331333325      594.7932261240917
0.029199514209569403      594.7397399505871
0.02944342851784522       594.5523179698666
0.02968687930793418       594.3227088598715
0.02993005164788383       594.0509126206014
0.030173131241734534      593.7369292520565
0.0304163040060093        593.380758754237
0.0306597556437771        592.9824011271426
0.030903671221153783      592.5418563707734
0.031163203382828072      591.920498435436
0.03142217899245488       591.2544639596334
0.03168082010415685       590.5437529433656
0.03193934963397098       589.7883653866324
0.032197990786442934      588.9883012894346
0.03245696647750436       588.1435606517712
0.032716498761068635      587.2541434736427
0.03299306118333142       586.1410713993267
0.03326895162351545       585.0069787584284
0.03354443814161999       583.8518655509478
0.03381978997732317       582.6757317768847
0.034095276765188226      581.4785774362396
0.03437116774410313       580.2604025290118
0.03464773097249833       579.0212070552018
0.034924294202460265      577.7167722713926
0.03520018518292322       576.4318598368965
0.03547567197232456       575.1664697517132
0.035751023809559274      573.9206020158429
0.036026510329197556      572.6942566292857
0.036302400770924524      571.4874335920414
0.03657896319474637       570.3001329041101
0.036838495506703706      569.1859398184087
0.03709747122597688       568.1235106854391
0.037356112406552636      567.1128455052017
0.03761464196443644       566.1539442776964
0.03787328310424792       565.2468070029234
0.03813225874209787       564.3914336808822
0.03839179093218227       563.5878243115733
0.03863570546763781       562.8608039627815
0.038879157791710306      562.196889977674
0.03912233240906017       561.596082356251
0.03936541445670531       561.0583810985125
0.039608589283092806      560.5837862044589
0.039852042024763494      560.1722976740891
0.04009595718542905       559.8239155074042
0.040307879631580334      559.5562151008108
0.04051949849477797       559.3390341891222
0.0407309350144797        559.1723727723381
0.040942310743905544      559.0562308504586
0.04115374734111909       558.990608423484
0.04136536635920676       558.9755054914137
0.04157728903736024       559.0109220542482
0.04178920745215007       559.1026592555446
0.042000823426259694      559.2434417650879
0.042212258026551035      559.4332695828781
0.04242363263153709       559.6721427089153
0.0426350687230549        559.9600611431997
0.042846687677050764      560.2970248857306
0.04305861055527523       560.6830339365088
0.04330252486354604       561.1551176205554
0.043545975653630026      561.6935175308887
0.04378914799357473       562.2982336675082
0.044032227587420474      562.969266030414
0.04427540035169028       563.7066146196066
0.04451885198945311       564.5102794350854
0.044762767566824783      565.3802604768507
0.045022299728516735      566.335916886907
0.04528127533816108       567.3374641580805
0.045539916449880535      568.3849022903712
0.045798445979712124      569.4782312837792
0.046057087132201545      570.6174511383049
0.04631606282328052       571.8025618539476
0.046575595106862454      573.0335634307077
0.04685215752913061       574.3473691100053
0.04712804796931999       575.6837244437701
0.04740353448742985       577.042629432002
0.04767888632313835       578.4240840747012
0.04795437311100872       579.8280883718677
0.048230264089928976      581.2546423235012
0.048506827318329566      582.7037459296021
0.04878339054829114       584.0842736046126
0.049059281528753745      585.4445841725217
0.04933476831815475       586.7846776333289
0.0496101201553891        588.1045539870348
0.04988560667502701       589.4042132336394
0.05016149711675364       590.6836553731422
0.050438059540575134      591.9428804055435
0.05069759185254397       592.962369998059
0.05095656757182859       593.936179045838
0.05121520875241573       594.8643075488804
0.05147373831031092       595.7467555071864
0.051732379450133786      596.5835229207562
0.05199135508799517       597.3746097895892
0.05225088727809108       598.1200161136858
0.0524948018135407        598.705195213496
0.052738254137607306      599.2326427679458
0.05298142875495131       599.7023587770348
0.05322451080259058       600.1143432407633
0.0534676856289722        600.4685961591316
0.05371113837063701       600.7651175321388
0.05395505353129665       601.0039073597858
0.05416697597743634       601.1452458420879
0.054378594840622414      601.2452555339747
0.05459003136031263       601.3039364354458
0.05480140708972696       601.3212885465017
0.05501284368692898       601.2973118671423
0.0552244627050051        601.2320063973671
0.05543638538314697       601.1253721371767
