% Model:              brazing.mph
% Version:            COMSOL 5.3.0.223
% Date:               Oct 20 2018, 01:30
% Dimension:          1
% Nodes:              225
% Expressions:        1
% Description:        Line graph
% x                       Height
0                         649.4266546238048
2.02242572596226E-4       649.420407367712
4.040113375593453E-4      649.3522948258067
6.054635867748898E-4      649.2223169980891
8.067573541103817E-4      649.0304738845591
0.0010080510467017985     648.7767654852167
0.001209503071861434      648.461191800062
0.0014112714639836859     648.0837528290947
0.001613513515825394      647.6444485723151
0.001815803045808458      647.248385869532
0.0020176184164428694     646.8067634708192
0.0022191170764546647     646.3195813761769
0.0024204572175778446     645.7868395856051
0.00262179740518867       645.2085380991037
0.002823296204553664      644.584676916673
0.0030251118070788686     643.9152560383124
0.003227401660948015      643.2002754640223
0.0034297372965816655     642.5038280068682
0.003631598594156443      641.7714639248553
0.0038331430353414214     641.0031832179837
0.004034528845142556      640.1989858862535
0.004235914622467191      639.3588719296644
0.004437458966299354      638.4828413482167
0.004639320101874085      637.57089414191
0.004841655511239337      636.6230303107448
0.005043918276497792      635.753920523004
0.005245706959792293      634.8733725606572
0.0054471789681153834     633.9813864237045
0.00564849245128538       633.0779621121458
0.005849805932728159      632.1630996259811
0.006051277935873691      631.2367989652103
0.00625306661055245       630.2990601298335
0.006455329363777148      629.3498831198507
0.0066576887471433525     628.4298504346443
0.0068595736811967985     627.5283366116499
0.007061141707903535      626.6453416508675
0.007262551112883539      625.780865552297
0.007463960555734714      624.9349083159383
0.007665528695965537      624.1074699417916
0.00786741381892875       623.2985504298567
0.0080697734661485        622.5081497801339
0.008272395437950266      621.7955301908934
0.008474540847339949      621.10637456748
0.008676367906616744      620.4406829098938
0.008878035577337231      619.7984552181348
0.009079703197965442      619.1796914922029
0.009281530107084053      618.5843917320982
0.00948367526660416       618.0125559378206
0.009686296889411194      617.4641841093702
0.009888748367913874      617.1127238766042
0.010090724718905934      616.7995701492131
0.010292383720552634      616.5247229271971
0.010493883896490891      616.288182210556
0.010695384145210549      616.08994799929
0.010897043365029401      615.9300202933988
0.011099020079070253      615.8083990928827
0.011301472064648224      615.7250843977417
0.011503924099142101      615.7417086336294
0.011705900863193036      615.7976668922377
0.011907560133099505      615.8929591735665
0.012109060430962503      616.0275854776158
0.012310560654077738      616.2015458043858
0.012512219699917606      616.4148401538763
0.012714196091111104      616.6674685260872
0.012916647604829811      616.9594309210188
0.013119269382981878      617.3962859324995
0.013321414683399362      617.8643798117278
0.013523241722808088      618.3637125587035
0.013724909467002238      618.8942841734266
0.013926577258472442      619.4560946558972
0.014128404439597363      620.0491440061154
0.014330549975836581      620.6734322240808
0.01453317208336263       621.3289593097938
0.014735531766219815      622.0512689680334
0.014937416940401616      622.7862020836084
0.015138985143475461      623.5337586565187
0.015340394656791169      624.2939386867645
0.015541804135826716      625.0667421743457
0.015743372236141022      625.8521691192623
0.015945257239325793      626.6502195215144
0.01614761668334845       627.4608933811018
0.01634987940592303       628.3809038778709
0.016551668047823844      629.2883153837455
0.016753140015983766      630.1831278987256
0.0169544534601584        631.0653414228113
0.017155766903708087      631.9349559560026
0.017357238869994664      632.7919714982993
0.017559027508778132      633.6363880497016
0.01776129022699866       634.4682056102096
0.017963625484858744      635.3256891211992
0.018165486461237414      636.1584359423538
0.018367030641941378      636.9664460736734
0.018568416255992027      637.749719515158
0.018769801906169285      638.5082562668075
0.018971346195167795      639.242056328622
0.019173207351754082      639.9511197006015
0.019375542861313405      640.6354463827458
0.019577832661189145      641.3360233909173
0.019779648217873542      641.985393858499
0.019981146975907166      642.5835577854912
0.020182487123025287      643.1305151718935
0.020383827220813066      643.6262660177063
0.020585325830972126      644.0708103229293
0.020787141141585735      644.4641480875629
0.020989430597769934      644.8062793116067
0.021191672662378012      645.2429334606195
0.021393441061935803      645.6170658505603
0.02159489309031221       645.9286764814293
0.021796186783028852      646.1777653532264
0.021997480548535182      646.3643324659515
0.022198932795108938      646.4883778196047
0.022400701557758636      646.549901414186
0.02260294412950465       646.5489032496954
0.02280539620920995       646.5897094357349
0.023007373018156245      646.5656613159975
0.02320903233274668       646.4767588904833
0.023410532675187733      646.3230021591922
0.023612032942881025      646.1043911221244
0.023813692033404853      645.8209257792797
0.024015668469493705      645.4726061306582
0.024218120028423832      645.0594321762597
0.024420742013481003      644.6632505020708
0.02462288751935683       644.2139284496972
0.02482471476325633       643.7114660191386
0.02502638271145666       643.1558632103953
0.025228050706933344      642.5471200234672
0.025429878092549915      641.8852364583541
0.025632023834248962      641.1702125150566
0.025834646148682177      640.402048193574
0.026037006051731277      639.6279738686009
0.026238891444565628      638.8141165101625
0.02644045986526205       637.960476118259
0.026641869595683754      637.0670526928902
0.02684327929182417       636.1338462340563
0.027044847609757647      635.1608567417572
0.02724673283158932       634.1480842159929
0.027449092495796006      633.0955286567635
0.02765135518998453       632.0675636856531
0.027853143803698084      631.0311189402992
0.028054615743803996      629.9861944207018
0.028255929159991804      628.932790126861
0.028457242575555555      627.8709060587768
0.028658714513790734      626.8005422164491
0.028860503124391312      625.721698599878
0.029062765814231884      624.6343752090634
0.029265100752448706      623.5528986833149
0.02946696141141544       622.4967351978963
0.029668505276199596      621.4658847528075
0.029869890575077548      620.4603473480486
0.03007127591008127       619.4801229836195
0.030272819883157453      618.5252116595201
0.03047468072232762       617.5956133757505
0.030677015912237836      616.6913281323108
0.030879305594778746      615.8608066175927
0.03108112103494649       615.0676901872132
0.031282619677010744      614.3119788411719
0.03148395970843373       613.5936725794692
0.0316852996905265        612.9127714021048
0.031886798184716555      612.2692753090787
0.032088613378814135      611.663184300391
0.03229090271766436       611.0944983760417
0.03249314477533616       610.7055959852057
0.03269491316800606       610.3710026597654
0.03289636518952694       610.0907183997211
0.03309765887540427       609.8647432050724
0.033298952634071295      609.6930770758195
0.033500404873789524      609.5757200119624
0.03370217362955133       609.512672013501
0.03390441619436107       609.5039330804354
0.03410686840969767       609.5978097904256
0.03430884535332711       609.746348498077
0.0345105048019665        609.94954920339
0.034712005278138794      610.2074119063642
0.03491350567956333       610.5199366069996
0.03511516490413611       610.8871233052967
0.035317141474908095      611.3089720012549
0.03551959316946952       611.7854826948744
0.035722216260139425      612.4021013479667
0.03592436286389621       613.0606569752273
0.036126191200505704      613.7611495766563
0.03632786023882611       614.5035791522538
0.03652952932442421       615.2879457020197
0.036731357802754806      616.1142492259539
0.03693350464234149       616.9824897240568
0.03713612806239678       617.8926671963278
0.03733848789969145       618.863692419231
0.037540373227224554      619.8553497935675
0.03774194158292153       620.8676393193372
0.03794335124849304       621.90056099654
0.03814476087977932       622.954114825176
0.03834632913270157       624.0283008052452
0.03854821428921239       625.1231189367476
0.038750573887637245      626.238569219683
0.03895283596123875       627.4185518939947
0.039154623958694366      628.5857806205518
0.039356095285438375      629.7402553993542
0.03955740808971597       630.8819762304017
0.03975872089337115       632.0109431136947
0.03996019221824938       633.1271560492329
0.04016198021260023       634.2306150370164
0.04036424228186526       635.3213200770451
0.040566577948397485      636.3985479102132
0.040768439330593605      637.44150558831
0.04096998391520435       638.4501931113352
0.04117136993220262       639.4246104792893
0.04137275598532357       640.3647576921719
0.04157430067821714       641.2706347499832
0.04177616224060133       642.142241652723
0.0419784981588055        642.9795784003916
0.04218078754816035       643.7989441314837
0.04238260269718259       644.5568601470587
0.04258410104946696       645.2533264471167
0.04278544079179545       645.8883430316575
0.04298678048479618       646.4619099006812
0.043188278689213704      646.9740270541879
0.043390093592177985      647.4246944921774
0.04359238263785921       647.8139122146497
0.043794623705544454      648.2514935027505
0.04399639111513442       648.6216495088636
0.04419784215819482       648.9243802329893
0.04439913486792596       649.1596856751274
0.044600427650446826      649.327565835278
0.04480187891170468       649.4280207134411
0.045003646684386715      649.4610503096168
0.04520588825921017       649.4266546238048
