% Model:              brazing.mph
% Version:            COMSOL 5.3.0.223
% Date:               Oct 20 2018, 00:45
% Dimension:          1
% Nodes:              225
% Expressions:        1
% Description:        Line graph
% x                       Height
0                         688.9221292660853
2.02242572596226E-4       688.9163491512071
4.040113375593453E-4      688.8461019033512
6.054635867748898E-4      688.7113875225177
8.067573541103817E-4      688.5122060087066
0.0010080510467017985     688.2485573619178
0.001209503071861434      687.9204415821515
0.0014112714639836859     687.5278586694076
0.001613513515825394      687.070808623686
0.001815803045808458      686.6637553458314
0.0020176184164428694     686.2092219843851
0.0022191170764546647     685.7072085393472
0.0024204572175778446     685.1577150107178
0.00262179740518867       684.5607413984968
0.002823296204553664      683.9162877026841
0.0030251118070788686     683.2243539232799
0.003227401660948015      682.4849400602841
0.0034297372965816655     681.7657806345493
0.003631598594156443      681.008983137228
0.0038331430353414214     680.2145475683203
0.004034528845142556      679.3824739278263
0.004235914622467191      678.5127622157456
0.004437458966299354      677.6054124320788
0.004639320101874085      676.6604245768253
0.004841655511239337      675.6777986499854
0.005043918276497792      674.7831894200276
0.005245706959792293      673.876177573895
0.0054471789681153834     672.9567631115875
0.00564849245128538       672.0249460331053
0.005849805932728159      671.0807263384481
0.006051277935873691      670.1241040276165
0.00625306661055245       669.1550791006096
0.006455329363777148      668.1736515574281
0.0066576887471433525     667.2224940444954
0.0068595736811967985     666.2902924960304
0.007061141707903535      665.3770469120332
0.007262551112883539      664.4827572925037
0.007463960555734714      663.607423637442
0.007665528695965537      662.751045946848
0.00786741381892875       661.9136242207219
0.0080697734661485        661.0951584590634
0.008272395437950266      660.3594635761102
0.008474540847339949      659.6470004457075
0.008676367906616744      658.9577690678552
0.008878035577337231      658.2917694425535
0.009079703197965442      657.6490015698022
0.009281530107084053      657.0294654496014
0.00948367526660416       656.4331610819511
0.009686296889411194      655.8600884668513
0.009888748367913874      655.4981491456332
0.010090724718905934      655.1749237311925
0.010292383720552634      654.8904122235294
0.010493883896490891      654.6446146226438
0.010695384145210549      654.4375309285356
0.010897043365029401      654.2691611412049
0.011099020079070253      654.1395052606517
0.011301472064648224      654.048563286876
0.011503924099142101      654.0630075542849
0.011705900863193036      654.1173124736941
0.011907560133099505      654.2114780451038
0.012109060430962503      654.3455042685138
0.012310560654077738      654.519391143924
0.012512219699917606      654.7331386713346
0.012714196091111104      654.9867468507456
0.012916647604829811      655.2802156821568
0.013119269382981878      655.728420758941
0.013321414683399362      656.208362755242
0.013523241722808088      656.7200416710598
0.013724909467002238      657.2634575063943
0.013926577258472442      657.8386102612457
0.014128404439597363      658.4454999356137
0.014330549975836581      659.0841265294988
0.01453317208336263       659.7544900429006
0.014735531766219815      660.4956857719338
0.014937416940401616      661.2492940808985
0.015138985143475461      662.0153149697943
0.015340394656791169      662.7937484386214
0.015541804135826716      663.5845944873797
0.015743372236141022      664.3878531160692
0.015945257239325793      665.2035243246901
0.01614761668334845       666.0316081132422
0.01634987940592303       666.9795461768545
0.016551668047823844      667.9141067574849
0.016753140015983766      668.8352898551334
0.0169544534601584        669.7430954698001
0.017155766903708087      670.637523601485
0.017357238869994664      671.518574250188
0.017559027508778132      672.3862474159092
0.01776129022699866       673.2405430986486
0.017963625484858744      674.1214926908153
0.018165486461237414      674.9771231246399
0.018367030641941378      675.8074344001224
0.018568416255992027      676.6124265172625
0.018769801906169285      677.3920994760605
0.018971346195167795      678.1464532765164
0.019173207351754082      678.8754879186298
0.019375542861313405      679.5792034024013
0.019577832661189145      680.3019949143808
0.019779648217873542      680.9712919882343
0.019981146975907166      681.5870946239614
0.020182487123025287      682.1494028215626
0.020383827220813066      682.6582165810374
0.020585325830972126      683.1135359023864
0.020787141141585735      683.5153607856088
0.020989430597769934      683.8636912307054
0.021191672662378012      684.3185567107771
0.021393441061935803      684.7083881474591
0.02159489309031221       685.0331855407516
0.021796186783028852      685.2929488906543
0.021997480548535182      685.4876781971675
0.022198932795108938      685.6173734602908
0.022400701557758636      685.6820346800246
0.02260294412950465       685.6816618563686
0.02280539620920995       685.7259020821347
0.023007373018156245      685.70273243226
0.02320903233274668       685.6121529067444
0.023410532675187733      685.4541635055882
0.023612032942881025      685.2287642287913
0.023813692033404853      684.9359550763536
0.024015668469493705      684.5757360482751
0.024218120028423832      684.1481071445558
0.024420742013481003      683.7445268030687
0.02462288751935683       683.2858862442745
0.02482471476325633       682.7721854681735
0.02502638271145666       682.2034244747654
0.025228050706933344      681.5796032640502
0.025429878092549915      680.9007218360283
0.025632023834248962      680.1667801906993
0.025834646148682177      679.3777783280634
0.026037006051731277      678.5845922570617
0.026238891444565628      677.750090085801
0.02644045986526205       676.8742718142814
0.026641869595683754      675.9571374425029
0.02684327929182417       674.9986869704655
0.027044847609757647      673.9989203981689
0.02724673283158932       672.9578377256137
0.027449092495796006      671.8754389527994
0.02765135518998453       670.8248416643512
0.027853143803698084      669.7651064574311
0.028054615743803996      668.6962333320391
0.028255929159991804      667.618222288175
0.028457242575555555      666.5310733258391
0.028658714513790734      665.4347864450312
0.028860503124391312      664.3293616457513
0.029062765814231884      663.2147989279997
0.029265100752448706      662.1063459869405
0.02946696141141544       661.0238936295667
0.029668505276199596      659.9674418558782
0.029869890575077548      658.9369906658751
0.03007127591008127       657.9325400595574
0.030272819883157453      656.9540900369249
0.03047468072232762       656.0016405979779
0.030677015912237836      655.0751917427162
0.030879305594778746      654.2273314384504
0.03108112103494649       653.4170612135135
0.031282619677010744      652.6443810679054
0.03148395970843373       651.9092910016262
0.0316852996905265        651.2117910146759
0.031886798184716555      650.5518811070543
0.032088613378814135      649.929561278762
0.03229090271766436       649.3448315297983
0.03249314477533616       648.9530420501299
0.03269491316800606       648.6163504811211
0.03289636518952694       648.334756822772
0.03309765887540427       648.1082610750825
0.033298952634071295      647.9368632380525
0.033500404873789524      647.8205633116825
0.03370217362955133       647.7593612959718
0.03390441619436107       647.7532571909207
0.03410686840969767       647.8551056641888
0.03430884535332711       648.0124505238168
0.0345105048019665        648.2252917698049
0.034712005278138794      648.4936294021529
0.03491350567956333       648.817463420861
0.03511516490413611       649.1967938259289
0.035317141474908095      649.631620617357
0.03551959316946952       650.1219437951451
0.035722216260139425      650.7615280468041
0.03592436286389621       651.4436647719866
0.036126191200505704      652.1683539706927
0.03632786023882611       652.9355956429223
0.03652952932442421       653.7453897886753
0.036731357802754806      654.5977364079519
0.03693350464234149       655.4926355007518
0.03713612806239678       656.4300870670754
0.03733848789969145       657.4321751181989
0.037540373227224554      658.4549134229622
0.03774194158292153       659.4983019813656
0.03794335124849304       660.5623407934087
0.03814476087977932       661.6470298590917
0.03834632913270157       662.7523691784146
0.03854821428921239       663.8783587513776
0.038750573887637245      665.0249985779802
0.03895283596123875       666.2432100684314
0.039154623958694366      667.4478067800593
0.039356095285438375      668.6387887128642
0.03955740808971597       669.816155866846
0.03975872089337115       670.9799082420046
0.03996019221824938       672.1300458383399
0.04016198021260023       673.2665686558524
0.04036424228186526       674.3894766945416
0.040566577948397485      675.4985309596926
0.040768439330593605      676.5722700353828
0.04096998391520435       677.6106939216119
0.04117136993220262       678.6138026183801
0.04137275598532357       679.5815961256873
0.04157430067821714       680.5140744435334
0.04177616224060133       681.4112375719188
0.0419784981588055        682.273085510843
0.04218078754816035       683.1189607974828
0.04238260269718259       683.9007171154465
0.04258410104946696       684.6183544647339
0.04278544079179545       685.2718728453452
0.04298678048479618       685.8612722572802
0.043188278689213704      686.3865527005394
0.043390093592177985      686.8477141751218
0.04359238263785921       687.2447566810285
0.043794623705544454      687.7001506914578
0.04399639111513442       688.0853382912308
0.04419784215819482       688.4003194803473
0.04439913486792596       688.6450942588076
0.044600427650446826      688.8196626266116
0.04480187891170468       688.9240245837591
0.045003646684386715      688.9581801302505
0.04520588825921017       688.9221292660853
