% Model:              brazing.mph
% Version:            COMSOL 5.3.0.223
% Date:               Oct 20 2018, 01:07
% Dimension:          1
% Nodes:              225
% Expressions:        1
% Description:        Line graph
% x                       Height
0                         636.0868774603837
2.1191841480136804E-4     636.0072034147469
4.2353438892247565E-4     635.8900316599771
6.349689892252786E-4      635.7353621960744
8.463435942227858E-4      635.5431950230387
0.001057779685752053      635.3135301408705
0.001269398639759412      635.0463675495688
0.001481321517995422      634.7417072491344
0.0017252358262731596     634.3345708943673
0.0019686866163640313     633.8979001702539
0.0022118589563155885     633.4316950767941
0.002454938550168189      632.9359556139877
0.0026981113144448556     632.4106817818354
0.0029415629522145732     631.8558735803363
0.0031854785295931678     631.2715310094909
0.0034450106912723537     630.5481685245107
0.0037039863009040125     629.7942889315082
0.003962627412610827      629.0098922304832
0.0042211569424298        628.1949784214357
0.004479798094906585      627.3495475043662
0.004738773785972872      626.473599479274
0.004998306069542035      625.5671343461595
0.005274868491808245      624.5055763751366
0.005550758931995686      623.4274214915673
0.0058262454501036105     622.3326696954517
0.006101597285810183      621.2213209867897
0.006377084073678616      620.0933753655818
0.006652975052596927      618.9488328318272
0.006929538280995558      617.7876933855265
0.007206101510950518      616.5854325751855
0.007481992491406557      615.4001252004205
0.007757479280801014      614.2317712612313
0.00803283111802884       613.0803707576181
0.008308317637660222      611.9459236895812
0.008584208079380276      610.8284300571198
0.008860770503195153      609.7278898602347
0.009120302815147717      608.6942787702424
0.00937927853441616       607.7003421852803
0.009637919714987194      606.7460801053486
0.009896449272866283      605.8314925304473
0.010155090412673047      604.9565794605768
0.010414066050518256      604.1213408957364
0.01067359824059789       603.3257768359265
0.010917512776055054      602.6002015901929
0.011160965100129169      601.9237325898354
0.011404139717480647      601.2963698348535
0.01164722176512739       600.7181133252476
0.011890396591516505      600.1889630610177
0.012133849333188814      599.7089190421634
0.012377764493855997      599.2779812686852
0.01258968694000722       598.9439900774358
0.012801305803204788      598.6490162999185
0.013012742322906452      598.3930599361328
0.013224118052332232      598.1761209860789
0.01343555464954572       597.9981994497573
0.013647173667633327      597.8592953271669
0.013859096345786744      597.7594086183087
0.014071014760598048      597.7145588022917
0.014282630734729056      597.7079424058488
0.01449406533504172       597.7395594289799
0.014705439940049088      597.8094098716853
0.014916876031588231      597.9174937339649
0.015128494985605482      598.0638110158183
0.015340417863851432      598.248361717246
0.01558433217214941       598.4774441971564
0.015827782962260412      598.7630281806898
0.016070955302232025      599.1051136678459
0.016314034896104664      599.503700658625
0.0165572076604014        599.9587891530272
0.01680065929819124       600.4703791510518
0.01704457487559009       601.0384706526996
0.01730410703726679       601.6574296926129
0.017563082646895985      602.3149175459962
0.01782172375860034       603.0109342128488
0.018080253288416847      603.7454796931713
0.01833889444089119       604.5185539869638
0.018597870131955005      605.3301570942256
0.018857402415521692      606.1802890149573
0.019133964837753384      607.0940143798437
0.019409855277906563      608.025410883092
0.019685341795980367      608.9744785247025
0.019960693631652874      609.9412173046749
0.0202361804194872        610.9256272230099
0.020512071398371242      611.9277082797065
0.020788634626735362      612.9474604747655
0.02106519785666259       613.9484810820474
0.021341088837091095      614.9380819566297
0.021616575626458134      615.9162630985124
0.02189192746365859       616.8830245076956
0.022167413983262562      617.8383661841796
0.02244330442495508       618.7822881279637
0.022719866848742224      619.7147903390486
0.022979399160698737      620.4963328116423
0.023238374879971102      621.2564297469166
0.023497016060546046      621.9950811448714
0.023755545618429033      622.7122870055065
0.02401418675823971       623.4080473288226
0.024273162396088833      624.0823621148188
0.024532694586172417      624.7352313634957
0.02477660912165014       625.275996921102
0.02502006144574469       625.784691530613
0.025263236063116538      626.261315192029
0.025506318110783622      626.7058679053498
0.025749492937193107      627.1183496705756
0.02599294567888585       627.4987604877061
0.026236860839573585      627.8471003567417
0.026448783285734738      628.097691138377
0.02666040214894219       628.3316678062138
0.026871838668653707      628.5490303602522
0.027083214398089334      628.7497788004924
0.027294650995312687      628.9339131269345
0.027506270013410168      629.1014333395781
0.02771819269157351       629.2523394384235
0.02793011110637494       629.3147023327914
0.028141727080496122      629.3595612398669
0.028353161680798985      629.3869161596499
0.028564536285796558      629.3967670921406
0.028775972377325904      629.3891140373391
0.028987591331333325      629.3639569952451
0.029199514209569403      629.3212959658588
0.02944342851784522       629.1485493827398
0.02968687930793418       628.9356043912264
0.02993005164788383       628.6824609913182
0.030173131241734534      628.3891191830156
0.0304163040060093        628.0555789663188
0.0306597556437771        627.681840341227
0.030903671221153783      627.2679033077409
0.031163203382828072      626.6748505677716
0.03142217899245488       626.0386444297934
0.03168082010415685       625.3592848938063
0.03193934963397098       624.6367719598102
0.032197990786442934      623.8711056278055
0.03245696647750436       623.0622858977913
0.032716498761068635      622.2103127697685
0.03299306118333142       621.140366030343
0.03326895162351545       620.0500058077027
0.03354443814161999       618.9392321018474
0.03381978997732317       617.8080449127775
0.034095276765188226      616.656444240493
0.03437116774410313       615.4844300849933
0.03464773097249833       614.292002446279
0.034924294202460265      613.0385845110853
0.03520018518292322       611.8042968769844
0.03547567197232456       610.5891395439761
0.035751023809559274      609.3931125120604
0.036026510329197556      608.2162157812376
0.036302400770924524      607.058449351507
0.03657896319474637       605.9198132228694
0.036838495506703706      604.8515608432804
0.03709747122597688       603.8338052050947
0.037356112406552636      602.8665463083117
0.03761464196443644       601.9497841529321
0.03787328310424792       601.0835187389558
0.03813225874209787       600.2677500663824
0.03839179093218227       599.5024781352122
0.03863570546763781       598.8090943614001
0.038879157791710306      598.1770020782003
0.03912233240906017       597.6062012856127
0.03936541445670531       597.0966919836374
0.039608589283092806      596.6484741722747
0.039852042024763494      596.2615478515241
0.04009595718542905       595.935913021386
0.040307879631580334      595.6861568145875
0.04051949849477797       595.485041564588
0.0407309350144797        595.3325672713875
0.040942310743905544      595.2287339349859
0.04115374734111909       595.1735415553836
0.04136536635920676       595.16699013258
0.04157728903736024       595.2090796665756
0.04178920745215007       595.3058976255886
0.042000823426259694      595.4498865602835
0.042212258026551035      595.6410464706603
0.04242363263153709       595.879377356719
0.0426350687230549        596.1648792184598
0.042846687677050764      596.4975520558822
0.04305861055527523       596.8773958689867
0.04330252486354604       597.3388047282224
0.043545975653630026      597.8647771597738
0.04378914799357473       598.4553131636412
0.044032227587420474      599.1104127398247
0.04427540035169028       599.8300758883242
0.04451885198945311       600.6143026091395
0.044762767566824783      601.4630929022709
0.045022299728516735      602.3935995903317
0.04528127533816108       603.36801851267
0.045539916449880535      604.3863496692856
0.045798445979712124      605.4485930601786
0.046057087132201545      606.5547486853493
0.04631606282328052       607.704816544797
0.046575595106862454      608.8987966385224
0.04685215752913061       610.1741990454258
0.04712804796931999       611.4711741273694
0.04740353448742985       612.7897218843531
0.04767888632313835       614.1298423163772
0.04795437311100872       615.4915354234416
0.048230264089928976      616.874801205546
0.048506827318329566      618.2796396626907
0.04878339054829114       619.6226137460012
0.049059281528753745      620.9457492426804
0.04933476831815475       622.2490461527287
0.0496101201553891        623.5325044761457
0.04988560667502701       624.796124212932
0.05016149711675364       626.0399053630869
0.050438059540575134      627.2638479266108
0.05069759185254397       628.2510297273009
0.05095656757182859       629.1939749120439
0.05121520875241573       630.0926834808397
0.05147373831031092       630.9471554336885
0.051732379450133786      631.7573907705905
0.05199135508799517       632.5233894915452
0.05225088727809108       633.245151596553
0.0524948018135407        633.8082098652724
0.052738254137607306      634.3149962022143
0.05298142875495131       634.7655106073786
0.05322451080259058       635.1597530807653
0.0534676856289722        635.4977236223749
0.05371113837063701       635.7794222322066
0.05395505353129665       636.0048489102609
0.05416697597743634       636.135067945204
0.054378594840622414      636.2257867566005
0.05459003136031263       636.2770053444505
0.05480140708972696       636.2887237087537
0.05501284368692898       636.2609418495103
0.0552244627050051        636.1936597667202
0.05543638538314697       636.0868774603837
