% Model:              brazing.mph
% Version:            COMSOL 5.3.0.223
% Date:               Oct 20 2018, 00:35
% Dimension:          1
% Nodes:              225
% Expressions:        1
% Description:        Line graph
% x                       Height
0                         647.0012945178868
2.1191841480136804E-4     646.9073059351252
4.2353438892247565E-4     646.7733804124814
6.349689892252786E-4      646.5995179499548
8.463435942227858E-4      646.3857185475459
0.001057779685752053      646.1319822052549
0.001269398639759412      645.838308923081
0.001481321517995422      645.5046987010248
0.0017252358262731596     645.059971434885
0.0019686866163640313     644.5836077489842
0.0022118589563155885     644.075607643322
0.002454938550168189      643.5359711178988
0.0026981113144448556     642.9646981727147
0.0029415629522145732     642.3617888077692
0.0031854785295931678     641.7272430230628
0.0034450106912723537     640.945273657114
0.0037039863009040125     640.1311457867107
0.003962627412610827      639.2848594118526
0.0042211569424298        638.4064145325402
0.004479798094906585      637.4958111487738
0.004738773785972872      636.5530492605523
0.004998306069542035      635.5781288678766
0.005274868491808245      634.4358619226352
0.005550758931995686      633.2761254194087
0.0058262454501036105     632.0989193581969
0.006101597285810183      630.9042437390001
0.006377084073678616      629.6920985618183
0.006652975052596927      628.4624838266511
0.006929538280995558      627.215399533499
0.007206101510950518      625.9219158887606
0.007481992491406557      624.6464703952659
0.007757479280801014      623.3890630530143
0.00803283111802884       622.1496938620064
0.008308317637660222      620.928362822242
0.008584208079380276      619.7250699337208
0.008860770503195153      618.5398151964431
0.009120302815147717      617.4271066869298
0.00937927853441616       616.3570460728511
0.009637919714987194      615.3296333542066
0.009896449272866283      614.3448685309967
0.010155090412673047      613.4027516032214
0.010414066050518256      612.5032825708804
0.01067359824059789       611.6464614339739
0.010917512776055054      610.8663559424432
0.011160965100129169      610.1392116435503
0.011404139717480647      609.4650285372952
0.01164722176512739       608.8438066236778
0.011890396591516505      608.2755459026985
0.012133849333188814      607.7602463743566
0.012377764493855997      607.2979080386526
0.01258968694000722       606.9400747372866
0.012801305803204788      606.6244361918524
0.013012742322906452      606.3509924023497
0.013224118052332232      606.1197433687787
0.01343555464954572       605.9306890911396
0.013647173667633327      605.7838295694316
0.013859096345786744      605.6791648036557
0.014071014760598048      605.6336533707623
0.014282630734729056      605.6295068481
0.01449406533504172       605.6667252356685
0.014705439940049088      605.745308533468
0.014916876031588231      605.8652567414988
0.015128494985605482      606.0265698597602
0.015340417863851432      606.2292478882528
0.01558433217214941       606.4817146024515
0.015827782962260412      606.7947335885057
0.016070955302232025      607.1683048464155
0.016314034896104664      607.6024283761807
0.0165572076604014        608.097104177802
0.01680065929819124       608.6523322512783
0.01704457487559009       609.2681125966104
0.01730410703726679       609.9406172124915
0.017563082646895985      610.6548758899116
0.01782172375860034       611.4108886288708
0.018080253288416847      612.2086554293691
0.01833889444089119       613.0481762914067
0.018597870131955005      613.9294512149829
0.018857402415521692      614.8524802000985
0.019133964837753384      615.8426080700884
0.019409855277906563      616.8519892931594
0.019685341795980367      617.8806238693107
0.019960693631652874      618.928511798543
0.0202361804194872        619.9956530808564
0.020512071398371242      621.0820477162501
0.020788634626735362      622.1876957047249
0.02106519785666259       623.2653460489303
0.021341088837091095      624.331112384439
0.021616575626458134      625.3849947112511
0.02189192746365859       626.4269930293668
0.022167413983262562      627.457107338786
0.02244330442495508       628.4753376395084
0.022719866848742224      629.4816839315343
0.022979399160698737      630.3244185349982
0.023238374879971102      631.1451601266942
0.023497016060546046      631.9439087066221
0.023755545618429033      632.7206642747822
0.02401418675823971       633.4754268311746
0.024273162396088833      634.2081963757985
0.024532694586172417      634.9189729086547
0.02477660912165014       635.5070035659863
0.02502006144574469       636.0613846718134
0.025263236063116538      636.5821162261357
0.025506318110783622      637.0691982289536
0.025749492937193107      637.5226306802673
0.02599294567888585       637.9424135800759
0.026236860839573585      638.3285469283803
0.026448783285734738      638.6079430428354
0.02666040214894219       638.869018767629
0.026871838668653707      639.111774102761
0.027083214398089334      639.3362090482317
0.027294650995312687      639.5423236040411
0.027506270013410168      639.7301177701887
0.02771819269157351       639.8995915466751
0.02793011110637494       639.9764353463748
0.028141727080496122      640.0334592161622
0.028353161680798985      640.0706631560372
0.028564536285796558      640.0880471659998
0.028775972377325904      640.0856112460503
0.028987591331333325      640.063355396188
0.029199514209569403      640.0212796164136
0.02944342851784522       639.8386808914664
0.02968687930793418       639.6126753824831
0.02993005164788383       639.3432630894633
0.030173131241734534      639.0304440124078
0.0304163040060093        638.674218151316
0.0306597556437771        638.274585506188
0.030903671221153783      637.831546077024
0.031163203382828072      637.1968286666373
0.03142217899245488       636.5163335741569
0.03168082010415685       635.7900607995825
0.03193934963397098       635.0180103429145
0.032197990786442934      634.2001822041531
0.03245696647750436       633.3365763832976
0.032716498761068635      632.4271928803485
0.03299306118333142       631.277143902694
0.03326895162351545       630.1059728457845
0.03354443814161999       628.91367970962
0.03381978997732317       627.7002644942007
0.034095276765188226      626.4657271995264
0.03437116774410313       625.2100678255969
0.03464773097249833       623.9332863724125
0.034924294202460265      622.5804060079721
0.03520018518292322       621.2484163861145
0.03547567197232456       619.9373175068396
0.035751023809559274      618.6471093701474
0.036026510329197556      617.3777919760382
0.036302400770924524      616.1293653245114
0.03657896319474637       614.9018294155675
0.036838495506703706      613.7468639554137
0.03709747122597688       612.6459281146995
0.037356112406552636      611.5990218934248
0.03761464196443644       610.6061452915899
0.03787328310424792       609.667298309195
0.03813225874209787       608.7824809462393
0.03839179093218227       607.9516932027234
0.03863570546763781       607.1999439192293
0.038879157791710306      606.5139661917991
0.03912233240906017       605.8937600204326
0.03936541445670531       605.3393254051301
0.039608589283092806      604.8506623458917
0.039852042024763494      604.4277708427168
0.04009595718542905       604.0706508956059
0.040307879631580334      603.7965518924851
0.04051949849477797       603.5749674013265
0.0407309350144797        603.4058974221298
0.040942310743905544      603.2893419548952
0.04115374734111909       603.2253009996231
0.04136536635920676       603.2137745563127
0.04157728903736024       603.2547626249645
0.04178920745215007       603.3547002251989
0.042000823426259694      603.5055984539626
0.042212258026551035      603.7074573112558
0.04242363263153709       603.9602767970783
0.0426350687230549        604.2640569114305
0.042846687677050764      604.6187976543118
0.04305861055527523       605.0244990257228
0.04330252486354604       605.518912973913
0.043545975653630026      606.082620562608
0.04378914799357473       606.7156217918075
0.044032227587420474      607.4179166615118
0.04427540035169028       608.1895051717212
0.04451885198945311       609.0303873224349
0.044762767566824783      609.9405631136536
0.045022299728516735      610.9397580473034
0.04528127533816108       611.9867449702296
0.045539916449880535      613.0815238824317
0.045798445979712124      614.2240947839102
0.046057087132201545      615.4144576746653
0.04631606282328052       616.6526125546962
0.046575595106862454      617.9385594240035
0.04685215752913061       619.307625104923
0.04712804796931999       620.7006218183801
0.04740353448742985       622.1175495643748
0.04767888632313835       623.5584083429075
0.04795437311100872       625.0231981539779
0.048230264089928976      626.5119189975857
0.048506827318329566      628.0245708737314
0.04878339054829114       629.4573740165094
0.049059281528753745      630.869479799273
0.04933476831815475       632.2608882220215
0.0496101201553891        633.6315992847552
0.04988560667502701       634.9816129874743
0.05016149711675364       636.3109293301782
0.050438059540575134      637.6195483128674
0.05069759185254397       638.6714852360575
0.05095656757182859       639.6761369818728
0.05121520875241573       640.6335035503132
0.05147373831031092       641.543584941379
0.051732379450133786      642.4063811550702
0.05199135508799517       643.2218921913866
0.05225088727809108       643.9901180503283
0.0524948018135407        644.5893214804943
0.052738254137607306      645.128585468239
0.05298142875495131       645.6079100135622
0.05322451080259058       646.0272951164642
0.0534676856289722        646.386740776945
0.05371113837063701       646.6862469950042
0.05395505353129665       646.9258137706423
0.05416697597743634       647.0646703485575
0.054378594840622414      647.1608357217983
0.05459003136031263       647.2143098903645
0.05480140708972696       647.2250928542566
0.05501284368692898       647.1931846134744
0.0552244627050051        647.1185851680177
0.05543638538314697       647.0012945178868
