% Model:              brazing.mph
% Version:            COMSOL 5.3.0.223
% Date:               Oct 20 2018, 01:06
% Dimension:          1
% Nodes:              225
% Expressions:        1
% Description:        Line graph
% x                       Height
0                         631.9349747884431
2.1191841480136804E-4     631.8495805826963
4.2353438892247565E-4     631.7258986461796
6.349689892252786E-4      631.5639289788932
8.463435942227858E-4      631.3636715808369
0.001057779685752053      631.1251264520112
0.001269398639759412      630.8482935924154
0.001481321517995422      630.53317300205
0.0017252358262731596     630.1121861088882
0.0019686866163640313     629.6610071538014
0.0022118589563155885     629.1796361367897
0.002454938550168189      628.6680730578529
0.0026981113144448556     628.1263179169916
0.0029415629522145732     627.5543707142051
0.0031854785295931678     626.9522314494939
0.0034450106912723537     626.2082705774795
0.0037039863009040125     625.4334037264732
0.003962627412610827      624.6276308964749
0.0042211569424298        623.7909520874846
0.004479798094906585      622.9233672995028
0.004738773785972872      622.0248765325288
0.004998306069542035      621.0954797865629
0.005274868491808245      620.0061184071213
0.005550758931995686      618.9000075554883
0.0058262454501036105     617.7771472316638
0.006101597285810183      616.637537435648
0.006377084073678616      615.4811781674412
0.006652975052596927      614.3080694270425
0.006929538280995558      613.1182112144527
0.007206101510950518      611.8844632799736
0.007481992491406557      610.6681313922738
0.007757479280801014      609.4692155513532
0.00803283111802884       608.2877157572116
0.008308317637660222      607.1236320098494
0.008584208079380276      605.9769643092661
0.008860770503195153      604.8477126554621
0.009120302815147717      603.7872084787409
0.00937927853441616       602.7675754204363
0.009637919714987194      601.7888134805482
0.009896449272866283      600.8509226590767
0.010155090412673047      599.9539029560223
0.010414066050518256      599.0977543713839
0.01067359824059789       598.2824769051624
0.010917512776055054      597.5396598642761
0.011160965100129169      596.8474385702473
0.011404139717480647      596.2058130230753
0.01164722176512739       595.6147832227606
0.011890396591516505      595.0743491693033
0.012133849333188814      594.5845108627028
0.012377764493855997      594.1452683029596
0.01258968694000722       593.8053375659644
0.012801305803204788      593.5056806672892
0.013012742322906452      593.246297606934
0.013224118052332232      593.0271883848989
0.01343555464954572       592.848353001184
0.013647173667633327      592.7097914557888
0.013859096345786744      592.611503748714
0.014071014760598048      592.5696363654863
0.014282630734729056      592.567219085786
0.01449406533504172       592.6042519096133
0.014705439940049088      592.6807348369679
0.014916876031588231      592.7966678678503
0.015128494985605482      592.9520510022597
0.015340417863851432      593.146884240197
0.01558433217214941       593.388856451125
0.015827782962260412      593.6887991787835
0.016070955302232025      594.0467124231725
0.016314034896104664      594.462596184292
0.0165572076604014        594.9364504621424
0.01680065929819124       595.468275256723
0.01704457487559009       596.0580705680343
0.01730410703726679       596.7012142534469
0.017563082646895985      597.3841954477089
0.01782172375860034       598.1070141508199
0.018080253288416847      598.8696703627801
0.01833889444089119       599.6721640835898
0.018597870131955005      600.5144953132482
0.018857402415521692      601.396664051756
0.019133964837753384      602.3430848531951
0.019409855277906563      603.3078128864488
0.019685341795980367      604.2908481515169
0.019960693631652874      605.2921906483992
0.0202361804194872        606.3118403770965
0.020512071398371242      607.3497973376079
0.020788634626735362      608.4060615299338
0.02106519785666259       609.4378376911781
0.021341088837091095      610.4580241574224
0.021616575626458134      611.4666209286671
0.02189192746365859       612.4636280049119
0.022167413983262562      613.4490453861575
0.02244330442495508       614.4228730724029
0.022719866848742224      615.3851110636489
0.022979399160698737      616.1906872726154
0.023238374879971102      616.9747877676409
0.023497016060546046      617.7374125487249
0.023755545618429033      618.4785616158678
0.02401418675823971       619.1982349690697
0.024273162396088833      619.89643260833
0.024532694586172417      620.5731545336492
0.02477660912165014       621.1329746855515
0.02502006144574469       621.6601478506574
0.025263236063116538      622.1546740289666
0.025506318110783622      622.6165532204797
0.025749492937193107      623.0457854251966
0.02599294567888585       623.4423706431168
0.026236860839573585      623.8063088742408
0.026448783285734738      624.0686962408216
0.02666040214894219       624.3136855672071
0.026871838668653707      624.5412768533968
0.027083214398089334      624.751470099391
0.027294650995312687      624.9442653051899
0.027506270013410168      625.1196624707927
0.02771819269157351       625.2776615962002
0.02793011110637494       625.3457545587953
0.028141727080496122      625.3952308987244
0.028353161680798985      625.426090615987
0.028564536285796558      625.4383337105834
0.028775972377325904      625.4319601825136
0.028987591331333325      625.4069700317773
0.029199514209569403      625.3633632583749
0.02944342851784522       625.1847434443107
0.02968687930793418       624.9646255310143
0.02993005164788383       624.7030095184859
0.030173131241734534      624.3998954067255
0.0304163040060093        624.0552831957332
0.0306597556437771        623.6691728855087
0.030903671221153783      623.2415644760523
0.031163203382828072      622.6296799788398
0.03142217899245488       621.9738031421401
0.03168082010415685       621.273933965953
0.03193934963397098       620.5300724502787
0.032197990786442934      619.7422185951172
0.03245696647750436       618.9103724004682
0.032716498761068635      618.0345338663319
0.03299306118333142       616.9295780818533
0.03326895162351545       615.8042226738969
0.03354443814161999       614.6584676424625
0.03381978997732317       613.4923129875503
0.034095276765188226      612.3057587091606
0.03437116774410313       611.0988048072927
0.03464773097249833       609.8714512819471
0.034924294202460265      608.5742378364833
0.03520018518292322       607.2970533006675
0.03547567197232456       606.0398976744992
0.035751023809559274      604.802770957979
0.036026510329197556      603.5856731511069
0.036302400770924524      602.3886042538822
0.03657896319474637       601.2115642663057
0.036838495506703706      600.1047522098063
0.03709747122597688       599.0498473842536
0.037356112406552636      598.0468497896478
0.03761464196443644       597.0957594259891
0.03787328310424792       596.1965762932774
0.03813225874209787       595.3493003915123
0.03839179093218227       594.5539317206944
0.03863570546763781       593.8335846673566
0.038879157791710306      593.1762432892389
0.03912233240906017       592.5819075863411
0.03936541445670531       592.0505775586635
0.039608589283092806      591.5822532062062
0.039852042024763494      591.1769345289688
0.04009595718542905       590.8346215269515
0.040307879631580334      590.5715701092075
0.04051949849477797       590.3587190513261
0.0407309350144797        590.196068353307
0.040942310743905544      590.0836180151505
0.04115374734111909       590.0213680368566
0.04136536635920676       590.0093184184251
0.04157728903736024       590.0474691598562
0.04178920745215007       590.1419283330705
0.042000823426259694      590.2850979069414
0.042212258026551035      590.4769778814683
0.04242363263153709       590.7175682566516
0.0426350687230549        591.0068690324915
0.042846687677050764      591.3448802089874
0.04305861055527523       591.7316017861399
0.04330252486354604       592.2023717759151
0.043545975653630026      592.7395811176906
0.04378914799357473       593.3432298114659
0.044032227587420474      594.0133178572414
0.04427540035169028       594.7498452550171
0.04451885198945311       595.5528120047926
0.044762767566824783      596.4222181065684
0.045022299728516735      597.376067304997
0.04528127533816108       598.3756121112579
0.045539916449880535      599.4208525253509
0.045798445979712124      600.5117885472761
0.046057087132201545      601.6484201770337
0.04631606282328052       602.8307474146233
0.046575595106862454      604.0587702600453
0.04685215752913061       605.3673712638429
0.04712804796931999       606.6988674488456
0.04740353448742985       608.0532588150535
0.04767888632313835       609.4305453624667
0.04795437311100872       610.8307270910856
0.048230264089928976      612.2538040009092
0.048506827318329566      613.6997760919384
0.04878339054829114       615.0736580156565
0.049059281528753745      616.4277315005885
0.04933476831815475       617.7619965467344
0.0496101201553891        619.0764531540943
0.04988560667502701       620.3711013226686
0.05016149711675364       621.6459410524564
0.050438059540575134      622.9009723434584
0.05069759185254397       623.9107454467837
0.05095656757182859       624.8753435637317
0.05121520875241573       625.7947666943024
0.05147373831031092       626.6690148384956
0.051732379450133786      627.4980879963117
0.05199135508799517       628.2819861677503
0.05225088727809108       629.0207093528117
0.0524948018135407        629.5970899679273
0.052738254137607306      630.1160096287499
0.05298142875495131       630.5774683352796
0.05322451080259058       630.981466087516
0.0534676856289722        631.3280028854598
0.05371113837063701       631.6170787291103
0.05395505353129665       631.8486936184678
0.05416697597743634       631.9830852989406
0.054378594840622414      632.0767883797309
0.05459003136031263       632.1298028608385
0.05480140708972696       632.1421287422635
0.05501284368692898       632.113766024006
0.0552244627050051        632.0447147060659
0.05543638538314697       631.9349747884431
