% Model:              brazing.mph
% Version:            COMSOL 5.3.0.223
% Date:               Oct 20 2018, 01:04
% Dimension:          1
% Nodes:              225
% Expressions:        1
% Description:        Line graph
% x                       Height
0                         657.2921652715949
2.02242572596226E-4       657.2815127908598
4.040113375593453E-4      657.2074555134789
6.054635867748898E-4      657.0699934394522
8.067573541103817E-4      656.8691265687797
0.0010080510467017985     656.6048549014615
0.001209503071861434      656.2771784374975
0.0014112714639836859     655.8860971768878
0.001613513515825394      655.4316111196322
0.001815803045808458      655.0224566807763
0.0020176184164428694     654.5666375549533
0.0022191170764546647     654.0641537421636
0.0024204572175778446     653.5150052424069
0.00262179740518867       652.9191920556832
0.002823296204553664      652.2767141819927
0.0030251118070788686     651.5875716213352
0.003227401660948015      650.8517643737109
0.0034297372965816655     650.1369993154792
0.003631598594156443      649.3852556447051
0.0038331430353414214     648.5965333613887
0.004034528845142556      647.7708324655296
0.004235914622467191      646.9081529571282
0.004437458966299354      646.0084948361844
0.004639320101874085      645.071858102698
0.004841655511239337      644.0982427566693
0.005043918276497792      643.207492069632
0.005245706959792293      642.3047808971041
0.0054471789681153834     641.3901092390853
0.00564849245128538       640.4634770955757
0.005849805932728159      639.5248844665754
0.006051277935873691      638.5743313520843
0.00625306661055245       637.6118177521023
0.006455329363777148      636.6373436666296
0.0066576887471433525     635.6934398144117
0.0068595736811967985     634.7683520079663
0.007061141707903535      633.8620802472935
0.007262551112883539      632.974624532393
0.007463960555734714      632.1059848632651
0.007665528695965537      631.2561612399095
0.00786741381892875       630.4251536623266
0.0080697734661485        629.6129621305159
0.008272395437950266      628.8817619931713
0.008474540847339949      628.1741560724761
0.008676367906616744      627.4901443684306
0.008878035577337231      626.8297268810347
0.009079703197965442      626.1929036102885
0.009281530107084053      625.5796745561918
0.00948367526660416       624.9900397187448
0.009686296889411194      624.4239990979473
0.009888748367913874      624.0622012343487
0.010090724718905934      623.7392883260841
0.010292383720552634      623.4552603731535
0.010493883896490891      623.2101173755569
0.010695384145210549      623.0038593332944
0.010897043365029401      622.836486246366
0.011099020079070253      622.7079981147716
0.011301472064648224      622.6183949385113
0.011503924099142101      622.6323963988496
0.011705900863193036      622.6863822837051
0.011907560133099505      622.7803525930781
0.012109060430962503      622.9143073269682
0.012310560654077738      623.0882464853757
0.012512219699917606      623.3021700683005
0.012714196091111104      623.5560780757426
0.012916647604829811      623.8499705077019
0.013119269382981878      624.2937520905383
0.013321414683399362      624.7693252467161
0.013523241722808088      625.2766899762355
0.013724909467002238      625.8158462790964
0.013926577258472442      626.3867941552988
0.014128404439597363      626.9895336048427
0.014330549975836581      627.6240646277281
0.01453317208336263       628.290387223955
0.014735531766219815      629.0263909584726
0.014937416940401616      629.7751279090584
0.015138985143475461      630.536598075712
0.015340394656791169      631.310801458434
0.015541804135826716      632.097738057224
0.015743372236141022      632.897407872082
0.015945257239325793      633.7098109030082
0.01614761668334845       634.5349471500025
0.01634987940592303       635.4742119893814
0.016551668047823844      636.4004421575216
0.016753140015983766      637.3136376544235
0.0169544534601584        638.2137984800867
0.017155766903708087      639.1009246345113
0.017357238869994664      639.9750161176977
0.017559027508778132      640.8360729296453
0.01776129022699866       641.6840950703544
0.017963625484858744      642.559730358389
0.018165486461237414      643.4101633511528
0.018367030641941378      644.235394048646
0.018568416255992027      645.0354224508683
0.018769801906169285      645.8102485578199
0.018971346195167795      646.5598723695009
0.019173207351754082      647.2842938859111
0.019375542861313405      647.9835131070506
0.019577832661189145      648.702413542604
0.019779648217873542      649.3687710284502
0.019981146975907166      649.982585564589
0.020182487123025287      650.5438571510208
0.020383827220813066      651.0525857877453
0.020585325830972126      651.5087714747626
0.020787141141585735      651.9124142120729
0.020989430597769934      652.2635139996759
0.021191672662378012      652.7155773565042
0.021393441061935803      653.1036674862619
0.02159489309031221       653.4277843889488
0.021796186783028852      653.6879280645649
0.021997480548535182      653.8840985131102
0.022198932795108938      654.0162957345848
0.022400701557758636      654.0845197289885
0.02260294412950465       654.0887704963216
0.02280539620920995       654.138608138848
0.023007373018156245      654.1220957230289
0.02320903233274668       654.0392332488644
0.023410532675187733      653.8900207163546
0.023612032942881025      653.6744581254992
0.023813692033404853      653.3925454762987
0.024015668469493705      653.0442827687525
0.024218120028423832      652.6296700028611
0.024420742013481003      652.2333330934829
0.02462288751935683       651.7825954160392
0.02482471476325633       651.2774569705296
0.02502638271145666       650.7179177569545
0.025228050706933344      650.1039777753139
0.025429878092549915      649.4356370256074
0.025632023834248962      648.7128955078355
0.025834646148682177      647.9357532219977
0.026037006051731277      647.1545021867165
0.026238891444565628      646.3324237683597
0.02644045986526205       645.4695179669276
0.026641869595683754      644.56578478242
0.02684327929182417       643.621224214837
0.027044847609757647      642.6358362641785
0.02724673283158932       641.6096209304446
0.027449092495796006      640.5425782136352
0.02765135518998453       639.5025361146471
0.027853143803698084      638.4535415659309
0.028054615743803996      637.3955945674862
0.028255929159991804      636.3286951193136
0.028457242575555555      635.2528432214127
0.028658714513790734      634.1680388737835
0.028860503124391312      633.0742820764262
0.029062765814231884      631.9715728293406
0.029265100752448706      630.8752365624642
0.02946696141141544       629.8045325101377
0.029668505276199596      628.7594606723611
0.029869890575077548      627.7400210491345
0.03007127591008127       626.7462136404578
0.030272819883157453      625.7780384463309
0.03047468072232762       624.835495466754
0.030677015912237836      623.9185847017269
0.030879305594778746      623.0782681613512
0.03108112103494649       622.2756364919823
0.031282619677010744      621.5106896936202
0.03148395970843373       620.7834277662649
0.0316852996905265        620.0938507099165
0.031886798184716555      619.4419585245749
0.032088613378814135      618.8277512102402
0.03229090271766436       618.2512287669124
0.03249314477533616       617.8603885349693
0.03269491316800606       617.5245427790164
0.03289636518952694       617.2436914990539
0.03309765887540427       617.0178346950817
0.033298952634071295      616.8469723670997
0.033500404873789524      616.7311045151081
0.03370217362955133       616.6702311391067
0.03390441619436107       616.6643522390957
0.03410686840969767       616.7642235768383
0.03430884535332711       616.9194680066208
0.0345105048019665        617.1300855284437
0.034712005278138794      617.3960761423065
0.03491350567956333       617.7174398482094
0.03511516490413611       618.0941766461524
0.035317141474908095      618.5262865361356
0.03551959316946952       619.0137695181587
0.035722216260139425      619.6455058778645
0.03592436286389621       620.3196469417629
0.036126191200505704      621.036192709854
0.03632786023882611       621.7951431821378
0.03652952932442421       622.5964983586143
0.036731357802754806      623.4402582392834
0.03693350464234149       624.3264228241452
0.03713612806239678       625.2549921131996
0.03733848789969145       626.2464888723421
0.037540373227224554      627.2586686773899
0.03774194158292153       628.2915315283428
0.03794335124849304       629.3450774252009
0.03814476087977932       630.4193063679643
0.03834632913270157       631.5142183566328
0.03854821428921239       632.6298133912065
0.038750573887637245      633.7660914716855
0.03895283596123875       634.9695653345259
0.039154623958694366      636.1595840317028
0.039356095285438375      637.336147563216
0.03955740808971597       638.4992559290655
0.03975872089337115       639.6489091292515
0.03996019221824938       640.7851071637738
0.04016198021260023       641.9078500326324
0.04036424228186526       643.0171377358273
0.040566577948397485      644.1131586483782
0.040768439330593605      645.1739177429688
0.04096998391520435       646.1994150195989
0.04117136993220262       647.1896504782686
0.04137275598532357       648.144624118978
0.04157430067821714       649.0643359417269
0.04177616224060133       649.9487859465154
0.0419784981588055        650.7979741333436
0.04218078754816035       651.6309158640994
0.04238260269718259       652.4006064192464
0.04258410104946696       653.1070457987848
0.04278544079179545       653.7502340027144
0.04298678048479618       654.3301710310351
0.043188278689213704      654.8468568837474
0.043390093592177985      655.3002915608505
0.04359238263785921       655.6904750623452
0.043794623705544454      656.1325625782438
0.04399639111513442       656.5055425970731
0.04419784215819482       656.8094151188332
0.04439913486792596       657.044180143524
0.044600427650446826      657.2098376711457
0.04480187891170468       657.3063877016981
0.045003646684386715      657.3338302351812
0.04520588825921017       657.2921652715949
