% Model:              brazing.mph
% Version:            COMSOL 5.3.0.223
% Date:               Oct 20 2018, 03:12
% Dimension:          1
% Nodes:              225
% Expressions:        1
% Description:        Line graph
% x                       Height
0                         628.761084848482
2.02242572596226E-4       628.7531952690457
4.040113375593453E-4      628.6847881294035
6.054635867748898E-4      628.5558634295554
8.067573541103817E-4      628.3664211695016
0.0010080510467017985     628.116461349242
0.001209503071861434      627.8059839687763
0.0014112714639836859     627.4349890281052
0.001613513515825394      627.003476527228
0.001815803045808458      626.6205632089121
0.0020176184164428694     626.1931213946763
0.0022191170764546647     625.7211510845201
0.0024204572175778446     625.204652278444
0.00262179740518867       624.6436249764478
0.002823296204553664      624.0380691785313
0.0030251118070788686     623.3879848846948
0.003227401660948015      622.6933720949382
0.0034297372965816655     622.0210377630161
0.003631598594156443      621.3131314746771
0.0038331430353414214     620.5696532299211
0.004034528845142556      619.790603028748
0.004235914622467191      618.975980871158
0.004437458966299354      618.1257867571509
0.004639320101874085      617.2400206867268
0.004841655511239337      616.3186826598858
0.005043918276497792      615.4795050297653
0.005245706959792293      614.6283643597351
0.0054471789681153834     613.7652606497952
0.00564849245128538       612.8901938999455
0.005849805932728159      612.0031641101862
0.006051277935873691      611.1041712805172
0.00625306661055245       610.1932154109384
0.006455329363777148      609.2702965014498
0.0066576887471433525     608.3763664510144
0.0068595736811967985     607.4997394224981
0.007061141707903535      606.6404154159009
0.007262551112883539      605.7983944312228
0.007463960555734714      604.973676468464
0.007665528695965537      604.1662615276241
0.00786741381892875       603.3761496087035
0.0080697734661485        602.6033407117019
0.008272395437950266      601.9091515048635
0.008474540847339949      601.236269132277
0.008676367906616744      600.5846935939427
0.008878035577337231      599.9544248898602
0.009079703197965442      599.3454630200298
0.009281530107084053      598.7578079844515
0.00948367526660416       598.1914597831251
0.009686296889411194      597.6464184160508
0.009888748367913874      597.2991199105801
0.010090724718905934      596.9878446928974
0.010292383720552634      596.7125927630025
0.010493883896490891      596.4733641208954
0.010695384145210549      596.2701587665763
0.010897043365029401      596.1029767000449
0.011099020079070253      595.9718179213015
0.011301472064648224      595.8766824303459
0.011503924099142101      595.8809072776631
0.011705900863193036      595.9223089072661
0.011907560133099505      596.0008873191549
0.012109060430962503      596.1166425133296
0.012310560654077738      596.26957448979
0.012512219699917606      596.4596832485363
0.012714196091111104      596.6869687895685
0.012916647604829811      596.9514311128864
0.013119269382981878      597.3603209400304
0.013321414683399362      597.7987413583653
0.013523241722808088      598.2666923678908
0.013724909467002238      598.7641739686072
0.013926577258472442      599.2911861605144
0.014128404439597363      599.8477289436125
0.014330549975836581      600.4338023179013
0.01453317208336263       601.049406283381
0.014735531766219815      601.732096872371
0.014937416940401616      602.4264051280743
0.015138985143475461      603.1323310504911
0.015340394656791169      603.8498746396212
0.015541804135826716      604.5790358954648
0.015743372236141022      605.3198148180218
0.015945257239325793      606.0722114072922
0.01614761668334845       606.836225663276
0.01634987940592303       607.7118038100035
0.016551668047823844      608.5747226850361
0.016753140015983766      609.4249822883739
0.0169544534601584        610.2625826200167
0.017155766903708087      611.0875236799646
0.017357238869994664      611.8998054682176
0.017559027508778132      612.6994279847756
0.01776129022699866       613.4863912296388
0.017963625484858744      614.3007623128448
0.018165486461237414      615.0913548216107
0.018367030641941378      615.8581687559363
0.018568416255992027      616.6012041158219
0.018769801906169285      617.3204609012673
0.018971346195167795      618.0159391122728
0.019173207351754082      618.6876387488379
0.019375542861313405      619.335559810963
0.019577832661189145      620.0066204734884
0.019779648217873542      620.6274484059644
0.019981146975907166      621.1980436083908
0.020182487123025287      621.7184060807679
0.020383827220813066      622.1885358230954
0.020585325830972126      622.6084328353737
0.020787141141585735      622.9780971176025
0.020989430597769934      623.2975286697817
0.021191672662378012      623.723092747471
0.021393441061935803      624.0879766661308
0.02159489309031221       624.392180425761
0.021796186783028852      624.6357040263619
0.021997480548535182      624.8185474679332
0.022198932795108938      624.940710750475
0.022400701557758636      625.0021938739873
0.02260294412950465       625.0029968384702
0.02280539620920995       625.0529531977247
0.023007373018156245      625.0400664978869
0.02320903233274668       624.9643367389566
0.023410532675187733      624.825763920934
0.023612032942881025      624.6243480438192
0.023813692033404853      624.3600891076119
0.024015668469493705      624.0329871123122
0.024218120028423832      623.6430420579203
0.024420742013481003      623.2763849082751
0.02462288751935683       622.8582415909656
0.02482471476325633       622.3886121059916
0.02502638271145666       621.8674964533533
0.025228050706933344      621.2948946330505
0.025429878092549915      620.6708066450833
0.025632023834248962      619.9952324894518
0.025834646148682177      619.2681721661559
0.026037006051731277      618.5397556936628
0.026238891444565628      617.7725589199639
0.02644045986526205       616.966581845059
0.026641869595683754      616.1218244689481
0.02684327929182417       615.2382867916315
0.027044847609757647      614.3159688131088
0.02724673283158932       613.3548705333803
0.027449092495796006      612.3549919524459
0.02765135518998453       611.3839989358696
0.027853143803698084      610.4043892951958
0.028054615743803996      609.416163030424
0.028255929159991804      608.4193201415545
0.028457242575555555      607.4138606285873
0.028658714513790734      606.3997844915222
0.028860503124391312      605.3770917303594
0.029062765814231884      604.345782345099
0.029265100752448706      603.3200304765675
0.02946696141141544       602.3184944758424
0.029668505276199596      601.3411743429238
0.029869890575077548      600.3880700778116
0.03007127591008127       599.4591816805058
0.030272819883157453      598.5545091510066
0.03047468072232762       597.6740524893137
0.030677015912237836      596.8178116954274
0.030879305594778746      596.035982843728
0.03108112103494649       595.289263688024
0.031282619677010744      594.5776542283156
0.03148395970843373       593.9011544646027
0.0316852996905265        593.2597643968852
0.031886798184716555      592.6534840251634
0.032088613378814135      592.082313349437
0.03229090271766436       591.5462523697062
0.03249314477533616       591.189629641535
0.03269491316800606       590.8846180948418
0.03289636518952694       590.6312177296268
0.03309765887540427       590.4294285458896
0.033298952634071295      590.2792505436304
0.033500404873789524      590.180683722849
0.03370217362955133       590.1337280835459
0.03390441619436107       590.1383836257206
0.03410686840969767       590.244060556786
0.03430884535332711       590.4016876582772
0.0345105048019665        590.6112649301938
0.034712005278138794      590.8727923725361
0.03491350567956333       591.186269985304
0.03511516490413611       591.5516977684974
0.035317141474908095      591.9690757221165
0.03551959316946952       592.4384038461611
0.035722216260139425      593.0461341639732
0.03592436286389621       593.6934645792372
0.036126191200505704      594.3803950919531
0.03632786023882611       595.1069257021209
0.03652952932442421       595.8730564097406
0.036731357802754806      596.6787872148122
0.03693350464234149       597.5241181173357
0.03713612806239678       598.4090491173112
0.03733848789969145       599.354008856356
0.037540373227224554      600.3180573986195
0.03774194158292153       601.3011947441018
0.03794335124849304       602.3034208928028
0.03814476087977932       603.3247358447225
0.03834632913270157       604.3651395998608
0.03854821428921239       605.4246321582177
0.038750573887637245      606.5032135197935
0.03895283596123875       607.6472519459352
0.039154623958694366      608.7779786673053
0.039356095285438375      609.8953936839041
0.03955740808971597       610.9994969957312
0.03975872089337115       612.0902886027868
0.03996019221824938       613.167768505071
0.04016198021260023       614.2319367025835
0.04036424228186526       615.2827931953245
0.040566577948397485      616.3208677168593
0.040768439330593605      617.3251794473684
0.04096998391520435       618.2957283868519
0.04117136993220262       619.2325145353096
0.04137275598532357       620.1355378927417
0.04157430067821714       621.0047984591481
0.04177616224060133       621.840296234529
0.0419784981588055        622.642031218884
0.04218078754816035       623.4311201511298
0.04238260269718259       624.159356464755
0.04258410104946696       624.8267401597597
0.04278544079179545       625.4332712361437
0.04298678048479618       625.9789496939071
0.043188278689213704      626.4637755330499
0.043390093592177985      626.8877487535722
0.04359238263785921       627.2508693554738
0.043794623705544454      627.6706183123587
0.04399639111513442       628.0243752634555
0.04419784215819482       628.3121402087637
0.04439913486792596       628.5339131482839
0.044600427650446826      628.6896940820158
0.04480187891170468       628.7794830099596
0.045003646684386715      628.8032799321148
0.04520588825921017       628.761084848482
