% Model:              brazing.mph
% Version:            COMSOL 5.3.0.223
% Date:               Oct 20 2018, 03:21
% Dimension:          1
% Nodes:              225
% Expressions:        1
% Description:        Line graph
% x                       Height
0                         609.9116107288888
2.1191841480136804E-4     609.8276146703516
4.2353438892247565E-4     609.7069833413854
6.349689892252786E-4      609.5497167419902
8.463435942227858E-4      609.3558148721661
0.001057779685752053      609.1252777319136
0.001269398639759412      608.8581053212316
0.001481321517995422      608.5542976401209
0.0017252358262731596     608.1489423027027
0.0019686866163640313     607.7146164009442
0.0022118589563155885     607.2513199348454
0.002454938550168189      606.7590529044064
0.0026981113144448556     606.2378153096274
0.0029415629522145732     605.6876071505078
0.0031854785295931678     605.1084284270482
0.0034450106912723537     604.3946203516782
0.0037039863009040125     603.6508533112041
0.003962627412610827      602.877127305626
0.0042211569424298        602.0734423349438
0.004479798094906585      601.239798399158
0.004738773785972872      600.3761954982676
0.004998306069542035      599.4826336322735
0.005274868491808245      598.4388744167782
0.005550758931995686      597.3787462790781
0.0058262454501036105     596.3022492191732
0.006101597285810183      595.2093832370637
0.006377084073678616      594.1001483327498
0.006652975052596927      592.9745445062307
0.006929538280995558      591.8325717575073
0.007206101510950518      590.651275413637
0.007481992491406557      589.4864032153919
0.007757479280801014      588.3379551627718
0.00803283111802884       587.2059312557769
0.008308317637660222      586.0903314944077
0.008584208079380276      584.9911558786631
0.008860770503195153      583.908404408544
0.009120302815147717      582.8923790044298
0.00937927853441616       581.9153297036162
0.009637919714987194      580.9772565061027
0.009896449272866283      580.0781594118898
0.010155090412673047      579.2180384209775
0.010414066050518256      578.3968935333652
0.01067359824059789       577.6147247490535
0.010917512776055054      576.9017814675237
0.011160965100129169      576.2372355767416
0.011404139717480647      575.6210870767069
0.01164722176512739       575.0533359674195
0.011890396591516505      574.53398224888
0.012133849333188814      574.0630259210873
0.012377764493855997      573.6404669840424
0.01258968694000722       573.3128051899863
0.012801305803204788      573.0236904942751
0.013012742322906452      572.773122896909
0.013224118052332232      572.5611023978878
0.01343555464954572       572.3876289972119
0.013647173667633327      572.2527026948807
0.013859096345786744      572.1563234908946
0.014071014760598048      572.1137744830704
0.014282630734729056      572.1089254497929
0.01449406533504172       572.1417763910621
0.014705439940049088      572.212327306878
0.014916876031588231      572.3205781972409
0.015128494985605482      572.4665290621501
0.015340417863851432      572.6501799016063
0.01558433217214941       572.8773346327039
0.015827782962260412      573.1602261874153
0.016070955302232025      573.4988545657404
0.016314034896104664      573.8932197676794
0.0165572076604014        574.3433217932323
0.01680065929819124       574.8491606423986
0.01704457487559009       575.4107363151788
0.01730410703726679       576.022706439117
0.017563082646895985      576.6725892686865
0.01782172375860034       577.3603848038872
0.018080253288416847      578.0860930447192
0.01833889444089119       578.8497139911831
0.018597870131955005      579.6512476432778
0.018857402415521692      580.490694001004
0.019133964837753384      581.3934658045121
0.019409855277906563      582.3134322595649
0.019685341795980367      583.2505933661627
0.019960693631652874      584.2049491243051
0.0202361804194872        585.1764995339928
0.020512071398371242      586.165244595225
0.020788634626735362      587.1711843080022
0.02106519785666259       588.1581315062432
0.021341088837091095      589.133635299285
0.021616575626458134      590.0976956871273
0.02189192746365859       591.0503126697706
0.022167413983262562      591.9914862472149
0.02244330442495508       592.9212164194596
0.022719866848742224      593.8395031865053
0.022979399160698737      594.6121591263282
0.023238374879971102      595.3636290023359
0.023497016060546046      596.0939128145285
0.023755545618429033      596.803010562906
0.02401418675823971       597.4909222474687
0.024273162396088833      598.1576478682159
0.024532694586172417      598.8031874251483
0.02477660912165014       599.3405969071343
0.02502006144574469       599.8468123862542
0.025263236063116538      600.3218338625076
0.025506318110783622      600.7656613358946
0.025749492937193107      601.1782948064156
0.02599294567888585       601.5597342740697
0.026236860839573585      601.9099797388577
0.026448783285734738      602.1641125808765
0.02666040214894219       602.4013312556368
0.026871838668653707      602.6216357631386
0.027083214398089334      602.8250261033819
0.027294650995312687      603.0115022763671
0.027506270013410168      603.1810642820933
0.02771819269157351       603.3337121205614
0.02793011110637494       603.4026017738938
0.028141727080496122      603.4534376405004
0.028353161680798985      603.4862197203807
0.028564536285796558      603.500948013535
0.028775972377325904      603.4976225199634
0.028987591331333325      603.4762432396655
0.029199514209569403      603.4368101726416
0.02944342851784522       603.2692346209673
0.02968687930793418       603.0624121359007
0.02993005164788383       602.8163427174416
0.030173131241734534      602.5310263655902
0.0304163040060093        602.2064630803467
0.0306597556437771        601.8426528617106
0.030903671221153783      601.4395957096824
0.031163203382828072      600.8623064308515
0.03142217899245488       600.2425837579593
0.03168082010415685       599.5804276910058
0.03193934963397098       598.8758382299909
0.032197990786442934      598.128815374915
0.03245696647750436       597.3393591257774
0.032716498761068635      596.5074694825788
0.03299306118333142       595.4611229081928
0.03326895162351545       594.3946036767406
0.03354443814161999       593.3079117882224
0.03381978997732317       592.2010472426381
0.034095276765188226      591.074010039988
0.03437116774410313       589.9268001802715
0.03464773097249833       588.759417663489
0.034924294202460265      587.5313928054014
0.03520018518292322       586.321633988809
0.03547567197232456       585.1301412137119
0.035751023809559274      583.9569144801097
0.036026510329197556      582.801953788003
0.036302400770924524      581.6652591373912
0.03657896319474637       580.5468305282747
0.036838495506703706      579.4975153687126
0.03709747122597688       578.4974330830881
0.037356112406552636      577.5465836714014
0.03761464196443644       576.6449671336522
0.03787328310424792       575.7925834698411
0.03813225874209787       574.9894326799674
0.03839179093218227       574.2355147640314
0.03863570546763781       573.5526635578531
0.038879157791710306      572.9299255668652
0.03912233240906017       572.3673007910683
0.03936541445670531       571.864789230462
0.039608589283092806      571.4223908850466
0.039852042024763494      571.0401057548218
0.04009595718542905       570.7179338397879
0.040307879631580334      570.4701205159166
0.04051949849477797       570.2701671896073
0.0407309350144797        570.1180738608595
0.040942310743905544      570.0138405296733
0.04115374734111909       569.9574671960493
0.04136536635920676       569.9489538599864
0.04157728903736024       569.9883005214856
0.04178920745215007       570.0811151058647
0.042000823426259694      570.2203307710181
0.042212258026551035      570.4059475169455
0.04242363263153709       570.6379653436471
0.0426350687230549        570.9163842511232
0.042846687677050764      571.2412042393731
0.04305861055527523       571.6124253083975
0.04330252486354604       572.0628169654905
0.043545975653630026      572.5767390130806
0.04378914799357473       573.1541914511678
0.044032227587420474      573.7951742797522
0.04427540035169028       574.4996874988341
0.04451885198945311       575.2677311084128
0.044762767566824783      576.099305108489
0.045022299728516735      577.0109530344213
0.04528127533816108       577.9657284835181
0.045539916449880535      578.9636314557793
0.045798445979712124      580.0046619512051
0.046057087132201545      581.0888199697956
0.04631606282328052       582.2161055115504
0.046575595106862454      583.3865185764698
0.04685215752913061       584.6361229899537
0.04712804796931999       585.9067510258549
0.04740353448742985       587.1984026841727
0.04767888632313835       588.5110779649076
0.04795437311100872       589.8447768680597
0.048230264089928976      591.1994993936283
0.048506827318329566      592.5752455416142
0.04878339054829114       593.8871064693387
0.049059281528753745      595.1792850663084
0.04933476831815475       596.4517813325232
0.0496101201553891        597.704595267983
0.04988560667502701       598.9377268726884
0.05016149711675364       600.1511761466385
0.050438059540575134      601.344943089834
0.05069759185254397       602.307746850651
0.05095656757182859       603.2270357395635
0.05121520875241573       604.1028097565711
0.05147373831031092       604.9350689016742
0.051732379450133786      605.7238131748729
0.05199135508799517       606.4690425761667
0.05225088727809108       607.170757105556
0.0524948018135407        607.7184122171127
0.052738254137607306      608.2111318330224
0.05298142875495131       608.648915953285
0.05322451080259058       609.0317645779007
0.0534676856289722        609.3596777068699
0.05371113837063701       609.6326553401916
0.05395505353129665       609.8506974778667
0.05416697597743634       609.9763118116962
0.054378594840622414      610.0629553319169
0.05459003136031263       610.1106280385288
0.05480140708972696       610.1193299315319
0.05501284368692898       610.0890610109265
0.0552244627050051        610.0198212767119
0.05543638538314697       609.9116107288888
