% Model:              brazing.mph
% Version:            COMSOL 5.3.0.223
% Date:               Oct 20 2018, 01:42
% Dimension:          1
% Nodes:              161
% Expressions:        1
% Description:        Line graph
% x                       Height
0                         614.0085956762226
1.9693985890610136E-4     613.9728664400268
3.9298030043864816E-4     613.9480792266578
5.884188308682271E-4      613.9342340361156
7.835557095112735E-4      613.9313308684002
9.786925881542028E-4      613.9393697235116
0.0011741311185834375     613.9583506014498
0.0013701715601154056     613.9882735022147
0.0015671114190207022     614.0291384258065
0.0017642608961497635     613.7924988702678
0.0019605081241513326     613.552384453067
0.0021561515411346144     613.3087951742043
0.002351492352702621      613.0617310336796
0.0025468331642698894     612.811192031493
0.0027424765812509564     612.5571781676445
0.0029387238092488436     612.299689442134
0.0031358732863727766     612.0387258549615
0.0033326885608882563     611.6759813713973
0.0035286060983021257     611.3181595468212
0.0037239228519497995     610.9652603812335
0.003918938519653848      610.6172838746339
0.004113954187357973      610.2742300270224
0.004309270941005876      609.9360988383993
0.004505188478420127      609.6028903087644
0.004702003752936137      609.2746044381175
0.004899138702461749      608.9324568969093
0.005095371599302965      608.6065716527315
0.005291000816927052      608.2969487055841
0.005486327495291825      608.0035880554668
0.005681654173656831      607.7264897023799
0.0058772833912816074     607.4656536463234
0.0060735162881239745     607.2210798872972
0.006270651237651189      606.9927684253012
0.006467582778148322      606.8177165887334
0.006663615013526554      606.675094605864
0.006859045413116663      606.5649024766931
0.0070541741987231454     606.4871402012203
0.007249302984329781      606.4418077794459
0.007444733383920351      606.4289052113699
0.007640765619299351      606.448432496992
0.007837697159797551      606.5003896363125
0.008034634474091872      606.4965504789418
0.008230672405352359      606.5291491621339
0.008426108448549354      606.598185685889
0.008621242851524007      606.703660050207
0.008816377254498534      606.8455722550879
0.009011813297695145      607.0239223005317
0.009207851228955002      607.2387101865384
0.00940478854324844       607.489935913108
0.00960192671152544       607.7992359635649
0.00979816278359587       608.1232730355705
0.009993795147248338      608.4620471291247
0.010189124956984269      608.8155582442276
0.010384454766719743      609.1838063808792
0.010580087130370853      609.5667915390794
0.010776323202439026      609.9645137188282
0.01097346137071288       610.3769729201257
0.011170281912174305      610.7451807785892
0.011366204645540166      611.1231298620633
0.011561526547508357      611.5108201705482
0.011756547339625332      611.9082517040438
0.011951568131742307      612.3154244625501
0.0121468900337105        612.7323384460673
0.012342812767076368      613.1589936545951
0.0125396333085378        613.5953900881336
0.012736771215691979      613.8784438660076
0.012933007030171178      614.1602471684467
0.013128639138602195      614.4407999954509
0.013323968694306592      614.7201023470202
0.013519298250011432      614.9981542231545
0.013714930358443784      615.274955623854
0.0139111661729252        615.5505065491185
0.014108304080082462      615.8248069989481
0.014305241249097643      615.8210073074694
0.014501279037039759      615.8206014213516
0.014696714938233999      615.823589340595
0.014891849199866372      615.8299710651995
0.015086983461498874      615.8397465951651
0.015282419362693495      615.8529159304917
0.01547845715063625       615.8694790711795
0.015675394319652317      615.8894360172284
0.015872325504405583      615.5257658501012
0.01606835738884011       615.1672940323496
0.016263787440706973      614.8140205639739
0.016458915880206496      614.465945444974
0.016654044319705866      614.1230686753498
0.016849474371572262      613.7853902551014
0.017045506256006017      613.4529101842288
0.017242437440758204      613.125628462732
0.01743957168037589       612.5766225082167
0.017635803876907424      612.0180611378727
0.01783143240066149       611.4499443516996
0.018026758388388308      610.8722721496977
0.01822208437611492       610.2850445318668
0.01841771289986836       609.688261498207
0.018613945096398854      609.0819230487182
0.018811079336015085      608.4660291834006
0.019007894687321662      607.8135848024499
0.01920381230049143       607.163121115415
0.019399129129200405      606.5146381222961
0.01959414487161704       605.868135823093
0.01978916061403359       605.2236142178058
0.01998447744274231       604.5810733064346
0.020180395055911654      603.9405130889792
0.020377210407217645      603.3019335654398
0.020574360469106157      602.7269655783804
0.020770608273960874      602.1725074564257
0.020966252262493188      601.6385591995755
0.021161593642948652      601.1251208078301
0.021356935023404883      600.6321922811892
0.021552579011939476      600.159773619653
0.021748826816797996      599.7078648232215
0.021945976878691802      599.2764658918945
0.022142917141692885      598.9466546989717
0.022338957981867254      598.659784872849
0.022534396907280062      598.4158564135264
0.02272953417907009       598.2148693210041
0.02292467145086023       598.056823595282
0.02312011037627338       597.94171923636
0.02331615121644832       597.8695562442382
0.023513091479450195      597.8403346189165
0.023710025135207962      597.7741237302774
0.02390605945730262       597.7560233393714
0.024101491924457957      597.7860334461984
0.024296622768016963      597.8641540507585
0.024491753611575823      597.9903851530518
0.02468718607873073       598.1647267530781
0.024883220400824673      598.3871788508375
0.025080154056581445      598.65774144633
0.025277299572591536      599.0359547304139
0.025473542893039384      599.4351596432356
0.02566918243840792       599.8553561847951
0.025864519396400307      600.2965443550926
0.026059856354392216      600.7587241541279
0.026255495899759323      601.2418955819011
0.026451739220204794      601.746058638412
0.026648884736211575      602.2712133236608
0.02684569473774919       602.8445583392333
0.027041607073256636      603.4231461114151
0.027236918672681274      604.0069766402058
0.027431929210095855      604.5960499256059
0.027626939747510428      605.1903659676152
0.027822251346935042      605.7899247662336
0.028018163682442445      606.3947263214611
0.028214973683980002      607.0047706332979
0.028412120943583204      607.5861809170934
0.028608365984047285      608.156395051562
0.02880400723361381       608.7154130367035
0.02899934588786498       609.2632348725182
0.02919468454211669       609.7998605590059
0.029390325791684838      610.3252900961667
0.02958657083215161       610.8395234840006
0.029783718091758563      611.3425607225075
0.029980652759780888      611.6751733869506
0.030176688080480362      612.007969395614
0.030372121537075924      612.340948748498
0.03056725336547531       612.6741114456022
0.030762385193874833      613.0074574869268
0.030957818650470807      613.3409868724716
0.031153853971170976      613.674699602237
0.031350788639194264      614.0085956762226
