% Model:              brazing.mph
% Version:            COMSOL 5.3.0.223
% Date:               Oct 20 2018, 02:51
% Dimension:          1
% Nodes:              225
% Expressions:        1
% Description:        Line graph
% x                       Height
0                         597.6955427254974
2.1191841480136804E-4     597.616259883896
4.2353438892247565E-4     597.4990453355255
6.349689892252786E-4      597.343899080386
8.463435942227858E-4      597.1508211184776
0.001057779685752053      596.9198114498004
0.001269398639759412      596.650870074354
0.001481321517995422      596.3439969921387
0.0017252358262731596     595.9338664704112
0.0019686866163640313     595.4930960856296
0.0022118589563155885     595.0216858377939
0.002454938550168189      594.5196357269044
0.0026981113144448556     593.9869457529611
0.0029415629522145732     593.4236159159634
0.0031854785295931678     592.8296462159119
0.0034450106912723537     592.1006303164833
0.0037039863009040125     591.3401555950313
0.003962627412610827      590.5482220515559
0.0042211569424298        589.7248296860568
0.004479798094906585      588.8699784985346
0.004738773785972872      587.9836684889885
0.004998306069542035      587.0658996574191
0.005274868491808245      585.9995632128279
0.005550758931995686      584.9161600501803
0.0058262454501036105     583.8156901694763
0.006101597285810183      582.6981535707159
0.006377084073678616      581.5635502538995
0.006652975052596927      580.4118802190264
0.006929538280995558      579.2431434660972
0.007206101510950518      578.0387539341876
0.007481992491406557      576.8509351592322
0.007757479280801014      575.6796871412308
0.00803283111802884       574.5250098801836
0.008308317637660222      573.3869033760907
0.008584208079380276      572.2653676289515
0.008860770503195153      571.1604026387666
0.009120302815147717      570.1257788460875
0.00937927853441616       569.1308231231878
0.009637919714987194      568.1755354700672
0.009896449272866283      567.2599158867258
0.010155090412673047      566.383964373164
0.010414066050518256      565.5476809293809
0.01067359824059789       564.7510655553773
0.010917512776055054      564.0258165137953
0.011160965100129169      563.3500108453965
0.011404139717480647      562.7236485501807
0.01164722176512739       562.1467296281479
0.011890396591516505      561.6192540792987
0.012133849333188814      561.1412219036321
0.012377764493855997      560.7126331011489
0.01258968694000722       560.3805014560462
0.012801305803204788      560.0877760426912
0.013012742322906452      559.8344568610839
0.013224118052332232      559.6205439112246
0.01343555464954572       559.446037193113
0.013647173667633327      559.3109367067492
0.013859096345786744      559.2152424521332
0.014071014760598048      559.1742530201501
0.014282630734729056      559.1718209322786
0.01449406533504172       559.2079461885185
0.014705439940049088      559.2826287888699
0.014916876031588231      559.3958687333331
0.015128494985605482      559.5476660219076
0.015340417863851432      559.7380206545938
0.01558433217214941       559.9739163327835
0.015827782962260412      560.2665734696054
0.016070955302232025      560.6159920650597
0.016314034896104664      561.0221721191464
0.0165572076604014        561.4851136318657
0.01680065929819124       562.004816603217
0.01704457487559009       562.5812810332009
0.01730410703726679       563.2104664183129
0.017563082646895985      563.8781057563043
0.01782172375860034       564.5841990471749
0.018080253288416847      565.3287462909251
0.01833889444089119       566.111747487555
0.018597870131955005      566.9332026370639
0.018857402415521692      567.7931117394523
0.019133964837753384      568.7210734852001
0.019409855277906563      569.6661851441536
0.019685341795980367      570.6284467163129
0.019960693631652874      571.607858201678
0.0202361804194872        572.6044196002492
0.020512071398371242      573.618130912026
0.020788634626735362      574.6489921370088
0.02106519785666259       575.6655171543094
0.021341088837091095      576.6697203814009
0.021616575626458134      577.6616018182831
0.02189192746365859       578.6411614649562
0.022167413983262562      579.6083993214204
0.02244330442495508       580.5633153876751
0.022719866848742224      581.5059096637208
0.022979399160698737      582.3051790539492
0.023238374879971102      583.081232394863
0.023497016060546046      583.8340696864624
0.023755545618429033      584.563690928747
0.02401418675823971       585.2700961217173
0.024273162396088833      585.9532852653728
0.024532694586172417      586.6132583597138
0.02477660912165014       587.1666738764625
0.02502006144574469       587.6871677876005
0.025263236063116538      588.1747400931276
0.025506318110783622      588.6293907930439
0.025749492937193107      589.0511198873496
0.02599294567888585       589.4399273760441
0.026236860839573585      589.7958132591281
0.026448783285734738      590.0548488661462
0.02666040214894219       590.2951502922742
0.026871838668653707      590.5167175375118
0.027083214398089334      590.7195506018592
0.027294650995312687      590.9036494853166
0.027506270013410168      591.0690141878832
0.02771819269157351       591.2156447095599
0.02793011110637494       591.2794623797874
0.028141727080496122      591.3235029704155
0.028353161680798985      591.347766481444
0.028564536285796558      591.3522529128732
0.028775972377325904      591.3369622647031
0.028987591331333325      591.3018945369331
0.029199514209569403      591.247049729564
0.02944342851784522       591.0617407664449
0.02968687930793418       590.8360575280782
0.02993005164788383       590.5700000144634
0.030173131241734534      590.2635682256007
0.0304163040060093        589.9167621614905
0.0306597556437771        589.5295818221322
0.030903671221153783      589.102027207526
0.031163203382828072      588.5000476376758
0.03142217899245488       587.8541540640816
0.03168082010415685       587.164346486743
0.03193934963397098       586.4306249056604
0.032197990786442934      585.6529893208335
0.03245696647750436       584.8314397322622
0.032716498761068635      583.9659761399469
0.03299306118333142       582.8890995693555
0.03326895162351545       581.7909613973811
0.03354443814161999       580.6715616240235
0.03381978997732317       579.5309002492827
0.034095276765188226      578.3689772731589
0.03437116774410313       577.1857926956515
0.03464773097249833       575.9813465167612
0.034924294202460265      574.7234931732595
0.03520018518292322       573.4835731189164
0.03547567197232456       572.2615863537321
0.035751023809559274      571.0575328777065
0.036026510329197556      569.8714126908399
0.036302400770924524      568.7032257931315
0.03657896319474637       567.5529721845821
0.036838495506703706      566.4777297481072
0.03709747122597688       565.4524405476423
0.037356112406552636      564.4771045831872
0.03761464196443644       563.5517218547421
0.03787328310424792       562.6762923623074
0.03813225874209787       561.8508161058825
0.03839179093218227       561.0752930854676
0.03863570546763781       560.3738197215812
0.038879157791710306      559.7337496732472
0.03912233240906017       559.1550829404657
0.03936541445670531       558.6378195232367
0.039608589283092806      558.1819594215602
0.039852042024763494      557.787502635436
0.04009595718542905       557.4544491648644
0.040307879631580334      557.1983003513151
0.04051949849477797       556.9911277171976
0.0407309350144797        556.832931262512
0.040942310743905544      556.7237109872582
0.04115374734111909       556.6634668914365
0.04136536635920676       556.6521989750465
0.04157728903736024       556.6899072380886
0.04178920745215007       556.7823109631593
0.042000823426259694      556.9222190663049
0.042212258026551035      557.1096315475254
0.04242363263153709       557.3445484068208
0.0426350687230549        557.6269696441914
0.042846687677050764      557.9568952596366
0.04305861055527523       558.334325253157
0.04330252486354604       558.7936106506016
0.043545975653630026      559.3176541227816
0.04378914799357473       559.9064556696966
0.044032227587420474      560.5600152913468
0.04427540035169028       561.2783329877323
0.04451885198945311       562.0614087588526
0.044762767566824783      562.9092426047083
0.045022299728516735      563.8399852745488
0.04528127533816108       564.8146191851483
0.045539916449880535      565.8331443365063
0.045798445979712124      566.8955607286232
0.046057087132201545      568.0018683614993
0.04631606282328052       569.1520672351337
0.046575595106862454      570.3461573495272
0.04685215752913061       571.6251746256472
0.04712804796931999       572.9250909840223
0.04740353448742985       574.2459064246523
0.04767888632313835       575.5876209475374
0.04795437311100872       576.9502345526778
0.048230264089928976      578.3337472400729
0.048506827318329566      579.7381590097232
0.04878339054829114       581.0845785367098
0.049059281528753745      582.4105067287333
0.04933476831815475       583.7159435857932
0.0496101201553891        585.0008891078897
0.04988560667502701       586.2653432950233
0.05016149711675364       587.5093061471931
0.050438059540575134      588.7327776643998
0.05069759185254397       589.7274261429684
0.05095656757182859       590.677340691675
0.05121520875241573       591.5825213105196
0.05147373831031092       592.4429679995022
0.051732379450133786      593.2586807586232
0.05199135508799517       594.029659587882
0.05225088727809108       594.7559044872789
0.0524948018135407        595.3269269889583
0.052738254137607306      595.8417435586501
0.05298142875495131       596.3003541963541
0.05322451080259058       596.7027589020701
0.0534676856289722        597.0489576757985
0.05371113837063701       597.3389505175388
0.05395505353129665       597.5727374272916
0.05416697597743634       597.7111338382753
0.054378594840622414      597.8092459836075
0.05459003136031263       597.8670738632883
0.05480140708972696       597.8846174773175
0.05501284368692898       597.8618768256957
0.0552244627050051        597.7988519084222
0.05543638538314697       597.6955427254974
