% Model:              brazing.mph
% Version:            COMSOL 5.3.0.223
% Date:               Oct 20 2018, 01:27
% Dimension:          1
% Nodes:              225
% Expressions:        1
% Description:        Line graph
% x                       Height
0                         631.7700966623105
2.1191841480136804E-4     631.6892731966498
4.2353438892247565E-4     631.5679714746198
6.349689892252786E-4      631.4061914962201
8.463435942227858E-4      631.2039332614511
0.001057779685752053      630.9611967703129
0.001269398639759412      630.6779820228048
0.001481321517995422      630.3542890189276
0.0017252358262731596     629.9213919283276
0.0019686866163640313     629.4560410136467
0.0022118589563155885     628.9582362748843
0.002454938550168189      628.427977712041
0.0026981113144448556     627.8652653251168
0.0029415629522145732     627.2700991141111
0.0031854785295931678     626.6424790790244
0.0034450106912723537     625.868363644739
0.0037039863009040125     625.0613393975719
0.003962627412610827      624.221406337523
0.0042211569424298        623.3485644645925
0.004479798094906585      622.4428137787805
0.004738773785972872      621.5041542800866
0.004998306069542035      620.5325859685112
0.005274868491808245      619.3971880163193
0.005550758931995686      618.2441511005254
0.0058262454501036105     617.0734752211296
0.006101597285810183      615.8851603781318
0.006377084073678616      614.6792065715322
0.006652975052596927      613.4556138013304
0.006929538280995558      612.2143820675268
0.007206101510950518      610.9305438221102
0.007481992491406557      609.6648853185916
0.007757479280801014      608.417406556971
0.00803283111802884       607.1881075372484
0.008308317637660222      605.9769882594242
0.008584208079380276      604.7840487234974
0.008860770503195153      603.609288929469
0.009120302815147717      602.5075677300847
0.00937927853441616       601.4484160631004
0.009637919714987194      600.431833928516
0.009896449272866283      599.4578213263319
0.010155090412673047      598.5263782565481
0.010414066050518256      597.637504719164
0.01067359824059789       596.7912007141801
0.010917512776055054      596.0208977263526
0.011160965100129169      595.3033454394633
0.011404139717480647      594.6385438535121
0.01164722176512739       594.0264929684993
0.011890396591516505      593.4671927844248
0.012133849333188814      592.9606433012882
0.012377764493855997      592.5068445190901
0.01258968694000722       592.1562092177268
0.012801305803204788      591.8475651800064
0.013012742322906452      591.5809124059286
0.013224118052332232      591.356250895494
0.01343555464954572       591.1735806487025
0.013647173667633327      591.0329016655534
0.013859096345786744      590.9342139460475
0.014071014760598048      590.8941579609352
0.014282630734729056      590.8953114739105
0.01449406533504172       590.9376744849733
0.014705439940049088      591.0212469941239
0.014916876031588231      591.1460290013624
0.015128494985605482      591.312020506688
0.015340417863851432      591.5192215101016
0.01558433217214941       591.7776611105646
0.015827782962260412      592.0961791646137
0.016070955302232025      592.4747756722485
0.016314034896104664      592.9134506334691
0.0165572076604014        593.4122040482758
0.01680065929819124       593.9710359166681
0.01704457487559009       594.5899462386465
0.01730410703726679       595.2659051747656
0.017563082646895985      595.9831537208788
0.01782172375860034       596.741691876986
0.018080253288416847      597.541519643087
0.01833889444089119       598.3826370191822
0.018597870131955005      599.265044005271
0.018857402415521692      600.188740601354
0.019133964837753384      601.1818630412611
0.019409855277906563      602.193823952614
0.019685341795980367      603.2246233354126
0.019960693631652874      604.2742611896571
0.0202361804194872        605.3427375153474
0.020512071398371242      606.4300523124831
0.020788634626735362      607.5362055810647
0.02106519785666259       608.6207067645737
0.021341088837091095      609.6927373751564
0.021616575626458134      610.7522974128126
0.02189192746365859       611.7993868775425
0.022167413983262562      612.8340057693463
0.02244330442495508       613.8561540882233
0.022719866848742224      614.8658318341742
0.022979399160698737      615.7147292788281
0.023238374879971102      616.5399527948327
0.023497016060546046      617.3415023821876
0.023755545618429033      618.119378040893
0.02401418675823971       618.8735797709493
0.024273162396088833      619.6041075723557
0.024532694586172417      620.3109614451128
0.02477660912165014       620.8972788266911
0.02502006144574469       621.4484428002904
0.025263236063116538      621.9644533659107
0.025506318110783622      622.4453105235518
0.025749492937193107      622.8910142732141
0.02599294567888585       623.3015646148971
0.026236860839573585      623.6769615486012
0.026448783285734738      623.9472289898263
0.02666040214894219       624.1983039431742
0.026871838668653707      624.430186408645
0.027083214398089334      624.6428763862388
0.027294650995312687      624.8363738759558
0.027506270013410168      625.0106788777954
0.02771819269157351       625.1657913917581
0.02793011110637494       625.2278691140453
0.028141727080496122      625.2697031014527
0.028353161680798985      625.2912933539799
0.028564536285796558      625.292639871627
0.028775972377325904      625.2737426543944
0.028987591331333325      625.2346017022813
0.029199514209569403      625.1752170152886
0.02944342851784522       624.9762910841408
0.02968687930793418       624.7334337675148
0.02993005164788383       624.4466450654103
0.030173131241734534      624.1159249778274
0.0304163040060093        623.7412735047665
0.0306597556437771        623.3226906462268
0.030903671221153783      622.8601764022088
0.031163203382828072      622.2081118853141
0.03142217899245488       621.5095497675801
0.03168082010415685       620.764490049007
0.03193934963397098       619.9729327295947
0.032197990786442934      619.1348778093436
0.03245696647750436       618.250325288253
0.032716498761068635      617.3192751663233
0.03299306118333142       616.156371774412
0.03326895162351545       614.9715130510266
0.03354443814161999       613.7646989961668
0.03381978997732317       612.5359296098325
0.034095276765188226      611.2852048920241
0.03437116774410313       610.0125248427411
0.03464773097249833       608.7178894619839
0.034924294202460265      607.3579918755429
0.03520018518292322       606.0185284189196
0.03547567197232456       604.6994990921138
0.035751023809559274      603.4009038951256
0.036026510329197556      602.1227428279551
0.036302400770924524      600.865015890602
0.03657896319474637       599.6277230830665
0.036838495506703706      598.4676661082704
0.03709747122597688       597.3615652686011
0.037356112406552636      596.3094205640585
0.03761464196443644       595.311231994643
0.03787328310424792       594.3669995603543
0.03813225874209787       593.4767232611923
0.03839179093218227       592.6404030971572
0.03863570546763781       591.8836831787454
0.038879157791710306      591.1926693458422
0.03912233240906017       590.5673615984475
0.03936541445670531       590.0077599365618
0.039608589283092806      589.5138643601849
0.039852042024763494      589.0856748693164
0.04009595718542905       588.7231914639568
0.040307879631580334      588.4448873171747
0.04051949849477797       588.2189899468445
0.0407309350144797        588.0454993529659
0.040942310743905544      587.9244155355391
0.04115374734111909       587.8557384945643
0.04136536635920676       587.839468230041
0.04157728903736024       587.8756047419696
0.04178920745215007       587.9707061817843
0.042000823426259694      588.1167000713233
0.042212258026551035      588.3135864105868
0.04242363263153709       588.5613651995749
0.0426350687230549        588.8600364382876
0.042846687677050764      589.2096001267247
0.04305861055527523       589.6100562648863
0.04330252486354604       590.0997349958528
0.043545975653630026      590.6584359643767
0.04378914799357473       591.2861591704582
0.044032227587420474      591.9829046140969
0.04427540035169028       592.7486722952934
0.04451885198945311       593.5834622140472
0.044762767566824783      594.4872743703586
0.045022299728516735      595.4803381621531
0.04528127533816108       596.5209653302732
0.045539916449880535      597.6091558747185
0.045798445979712124      598.7449097954891
0.046057087132201545      599.9282270925856
0.04631606282328052       601.1591077660071
0.046575595106862454      602.4375518157542
0.04685215752913061       603.8038082007309
0.04712804796931999       605.1935381985302
0.04740353448742985       606.6067418091516
0.04767888632313835       608.0434190325954
0.04795437311100872       609.5035698688619
0.048230264089928976      610.9871943179502
0.048506827318329566      612.4942923798612
0.04878339054829114       613.9341756710858
0.049059281528753745      615.3531898585244
0.04933476831815475       616.7513349421768
0.0496101201553891        618.1286109220432
0.04988560667502701       619.485017798124
0.05016149711675364       620.8205555704182
0.050438059540575134      622.1352242389266
0.05069759185254397       623.1999435108507
0.05095656757182859       624.2173372159336
0.05121520875241573       625.1874053541749
0.05147373831031092       626.1101479255747
0.051732379450133786      626.9855649301333
0.05199135508799517       627.8136563678501
0.05225088727809108       628.5944222387255
0.0524948018135407        629.2072753850717
0.052738254137607306      629.7599705205123
0.05298142875495131       630.2525076450474
0.05322451080259058       630.6848867586768
0.0534676856289722        631.057107861401
0.05371113837063701       631.3691709532194
0.05395505353129665       631.6210760341323
0.05416697597743634       631.7706081386241
0.054378594840622414      631.8773924286747
0.05459003136031263       631.9414289042841
0.05480140708972696       631.9627175654524
0.05501284368692898       631.9412584121796
0.0552244627050051        631.8770514444656
0.05543638538314697       631.7700966623105
