% Model:              brazing.mph
% Version:            COMSOL 5.3.0.223
% Date:               Oct 20 2018, 01:22
% Dimension:          1
% Nodes:              225
% Expressions:        1
% Description:        Line graph
% x                       Height
0                         626.8433701030357
2.1191841480136804E-4     626.7519935271343
4.2353438892247565E-4     626.6204570281925
6.349689892252786E-4      626.4487606062099
8.463435942227858E-4      626.2369042611869
0.001057779685752053      625.9848879931237
0.001269398639759412      625.6927118020194
0.001481321517995422      625.3603756878748
0.0017252358262731596     624.9172315405373
0.0019686866163640313     624.4418369058586
0.0022118589563155885     623.9341917838386
0.002454938550168189      623.3942961744774
0.0026981113144448556     622.8221500777752
0.0029415629522145732     622.2177534937313
0.0031854785295931678     621.5811064223464
0.0034450106912723537     620.7986803024648
0.0037039863009040125     619.983773855319
0.003962627412610827      619.1363870809087
0.0042211569424298        618.2565199792339
0.004479798094906585      617.344172550295
0.004738773785972872      616.3993447940911
0.004998306069542035      615.4220367106232
0.005274868491808245      614.2789348297517
0.005550758931995686      613.118247376667
0.0058262454501036105     611.9399743513688
0.006101597285810183      610.7441157538574
0.006377084073678616      609.5306715841327
0.006652975052596927      608.2996418421944
0.006929538280995558      607.051026528043
0.007206101510950518      605.7567782643794
0.007481992491406557      604.4803629235785
0.007757479280801014      603.2217805056401
0.00803283111802884       601.9810310105645
0.008308317637660222      600.7581144383519
0.008584208079380276      599.5530307890015
0.008860770503195153      598.365780062514
0.009120302815147717      597.251850823243
0.00937927853441616       596.1804897813581
0.009637919714987194      595.1516969368594
0.009896449272866283      594.1654722897468
0.010155090412673047      593.2218158400207
0.010414066050518256      592.3207275876805
0.01067359824059789       591.4622075327266
0.010917512776055054      590.6809710357412
0.011160965100129169      589.9526463147206
0.011404139717480647      589.2772333696645
0.01164722176512739       588.6547322005732
0.011890396591516505      588.0851428074468
0.012133849333188814      587.5684651902848
0.012377764493855997      587.1046993490877
0.01258968694000722       586.7453963513295
0.012801305803204788      586.4284224437032
0.013012742322906452      586.1537776262086
0.013224118052332232      585.9214618988456
0.01343555464954572       585.7314752616148
0.013647173667633327      585.5838177145156
0.013859096345786744      585.4784892575482
0.014071014760598048      585.4314963429262
0.014282630734729056      585.426032354131
0.01449406533504172       585.4620972911629
0.014705439940049088      585.5396911540219
0.014916876031588231      585.6588139427079
0.015128494985605482      585.8194656572207
0.015340417863851432      586.0216462975607
0.01558433217214941       586.2745501294427
0.015827782962260412      586.5877360464486
0.016070955302232025      586.9612040485788
0.016314034896104664      587.3949541358331
0.0165572076604014        587.8889863082118
0.01680065929819124       588.4433005657143
0.01704457487559009       589.057896908341
0.01730410703726679       589.7298749508496
0.017563082646895985      590.44370749456
0.01782172375860034       591.1993945394723
0.018080253288416847      591.9969360855864
0.01833889444089119       592.8363321329027
0.018597870131955005      593.7175826814206
0.018857402415521692      594.6406877311406
0.019133964837753384      595.6310909587521
0.019409855277906563      596.64078074834
0.019685341795980367      597.6697570999042
0.019960693631652874      598.7180200134449
0.0202361804194872        599.7855694889622
0.020512071398371242      600.8724055264554
0.020788634626735362      601.9785281259253
0.02106519785666259       603.0561849816515
0.021341088837091095      604.1219268417074
0.021616575626458134      605.1757537060928
0.02189192746365859       606.217665574808
0.022167413983262562      607.2476624478531
0.02244330442495508       608.2657443252278
0.022719866848742224      609.2719112069324
0.022979399160698737      610.1164319924247
0.023238374879971102      610.9386500912876
0.023497016060546046      611.7385655035212
0.023755545618429033      612.5161782291253
0.02401418675823971       613.2714882681005
0.024273162396088833      614.0044956204459
0.024532694586172417      614.7152002861621
0.02477660912165014       615.3041046622988
0.02502006144574469       615.8591714635745
0.025263236063116538      616.3804006899894
0.025506318110783622      616.8677923415438
0.025749492937193107      617.3213464182375
0.02599294567888585       617.7410629200701
0.026236860839573585      618.1269418470422
0.026448783285734738      618.4066036595182
0.02666040214894219       618.6671905537828
0.026871838668653707      618.9087025298359
0.027083214398089334      619.1311395876775
0.027294650995312687      619.3345017273078
0.027506270013410168      619.5187889487265
0.02771819269157351       619.6840012519339
0.02793011110637494       619.758706798197
0.028141727080496122      619.8127851315415
0.028353161680798985      619.846236251968
0.028564536285796558      619.8590601594763
0.028775972377325904      619.8512568540664
0.028987591331333325      619.8228263357381
0.029199514209569403      619.7737686044917
0.02944342851784522       619.5846193388402
0.02968687930793418       619.351873242775
0.02993005164788383       619.0755303162961
0.030173131241734534      618.7555905594036
0.0304163040060093        618.3920539720975
0.0306597556437771        617.9849205543776
0.030903671221153783      617.5341903062441
0.031163203382828072      616.8940801637877
0.03142217899245488       616.2082219272572
0.03168082010415685       615.4766155966523
0.03193934963397098       614.6992611719733
0.032197990786442934      613.8761586532202
0.03245696647750436       613.0073080403926
0.032716498761068635      612.0927093334909
0.03299306118333142       610.9398968231744
0.03326895162351545       609.76608954694
0.03354443814161999       608.5712875047875
0.03381978997732317       607.3554906967174
0.034095276765188226      606.1186991227295
0.03437116774410313       604.8609127828234
0.03464773097249833       603.5821316769998
0.034924294202460265      602.227797685589
0.03520018518292322       600.894353323888
0.03547567197232456       599.5817985918968
0.035751023809559274      598.2901334896153
0.036026510329197556      597.0193580170438
0.036302400770924524      595.7694721741818
0.03657896319474637       594.5404759610298
0.036838495506703706      593.3846378695258
0.03709747122597688       592.2827679639337
0.037356112406552636      591.2348662442528
0.03761464196443644       590.2409327104837
0.03787328310424792       589.3009673626265
0.03813225874209787       588.4149702006804
0.03839179093218227       587.5829412246462
0.03863570546763781       586.8306801895515
0.038879157791710306      586.1441524954125
0.03912233240906017       585.523358142229
0.03936541445670531       584.9682971300011
0.039608589283092806      584.4789694587292
0.039852042024763494      584.0553751284125
0.04009595718542905       583.6975141390517
0.040307879631580334      583.4231282056992
0.04051949849477797       583.2014052082416
0.0407309350144797        583.0323451466787
0.040942310743905544      582.9159480210106
0.04115374734111909       582.8522138312377
0.04136536635920676       582.8411425773593
0.04157728903736024       582.8827342593759
0.04178920745215007       582.9830875721751
0.042000823426259694      583.1345545959927
0.042212258026551035      583.3371353308286
0.04242363263153709       583.590829776683
0.0426350687230549        583.895637933556
0.042846687677050764      584.2515598014471
0.04305861055527523       584.6585953803568
0.04330252486354604       585.1559656898065
0.043545975653630026      585.7224014074992
0.04378914799357473       586.3579025334348
0.044032227587420474      587.0624690676132
0.04427540035169028       587.8361010100347
0.04451885198945311       588.6787983606988
0.044762767566824783      589.5905611196061
0.045022299728516735      590.5920906510669
0.04528127533816108       591.6416045622314
0.045539916449880535      592.7391028530993
0.045798445979712124      593.8845855236709
0.046057087132201545      595.0780525739465
0.04631606282328052       596.3195040039253
0.046575595106862454      597.6089398136081
0.04685215752913061       598.9817250185058
0.04712804796931999       600.3784124607822
0.04740353448742985       601.7990021404374
0.04767888632313835       603.2434940574716
0.04795437311100872       604.7118882118848
0.048230264089928976      606.2041846036764
0.048506827318329566      607.7203832328471
0.04878339054829114       609.1562842638235
0.049059281528753745      610.57148385927
0.04933476831815475       611.9659820191861
0.0496101201553891        613.3397787435722
0.04988560667502701       614.6928740324283
0.05016149711675364       616.0252678857541
0.050438059540575134      617.3369603035501
0.05069759185254397       618.3947942993426
0.05095656757182859       619.4052283337486
0.05121520875241573       620.3682624067679
0.05147373831031092       621.2838965184009
0.051732379450133786      622.1521306686475
0.05199135508799517       622.9729648575071
0.05225088727809108       623.7463990849805
0.0524948018135407        624.3521477866067
0.052738254137607306      624.8979955328709
0.05298142875495131       625.3839423237731
0.05322451080259058       625.8099881593132
0.0534676856289722        626.1761330394914
0.05371113837063701       626.4823769643074
0.05395505353129665       626.7287199337613
0.05416697597743634       626.8741578928712
0.054378594840622414      626.976576064148
0.05459003136031263       627.0359744475918
0.05480140708972696       627.0523530432023
0.05501284368692898       627.02571185098
0.0552244627050051        626.9560508709243
0.05543638538314697       626.8433701030357
