% Model:              brazing.mph
% Version:            COMSOL 5.3.0.223
% Date:               Oct 20 2018, 01:26
% Dimension:          1
% Nodes:              161
% Expressions:        1
% Description:        Line graph
% x                       Height
0                         626.415786222874
1.9693985890610136E-4     626.386165992186
3.9298030043864816E-4     626.3664312097459
5.884188308682271E-4      626.3565818755541
7.835557095112735E-4      626.3566179896103
9.786925881542028E-4      626.3665395519148
0.0011741311185834375     626.3863465624672
0.0013701715601154056     626.4160390212678
0.0015671114190207022     626.4556169283165
0.0017642608961497635     626.2184033034515
0.0019605081241513326     625.9776953509473
0.0021561515411346144     625.7334930708043
0.002351492352702621      625.4857964630223
0.0025468331642698894     625.2346055276015
0.0027424765812509564     624.9799202645415
0.0029387238092488436     624.7217406738428
0.0031358732863727766     624.460066755505
0.0033326885608882563     624.09364318345
0.0035286060983021257     623.7324763714038
0.0037239228519497995     623.3765663193664
0.003918938519653848      623.0259130273378
0.004113954187357973      622.680516495318
0.004309270941005876      622.3403767233073
0.004505188478420127      622.0054937113051
0.004702003752936137      621.6758674593119
0.004899138702461749      621.3292306800902
0.005095371599302965      620.9993982231508
0.005291000816927052      620.686370088494
0.005486327495291825      620.3901462761196
0.005681654173656831      620.1107267860276
0.0058772833912816074     619.8481116182181
0.0060735162881239745     619.602300772691
0.006270651237651189      619.3732942494464
0.006467582778148322      619.1945162527751
0.006663615013526554      619.0486077647812
0.006859045413116663      618.9355687854644
0.0070541741987231454     618.855399314825
0.007249302984329781      618.8080993528629
0.007444733383920351      618.793668899578
0.007640765619299351      618.8121079549704
0.007837697159797551      618.8634165190401
0.008034634474091872      618.8607979380716
0.008230672405352359      618.8948728342352
0.008426108448549354      618.965641207531
0.008621242851524007      619.0731030579589
0.008816377254498534      619.2172583855188
0.009011813297695145      619.3981071902109
0.009207851228955002      619.6156494720352
0.00940478854324844       619.8698852309915
0.00960192671152544       620.1793721528609
0.00979816278359587       620.5041458880311
0.009993795147248338      620.8442064365022
0.010189124956984269      621.1995537982743
0.010384454766719743      621.5701879733474
0.010580087130370853      621.9561089617214
0.010776323202439026      622.3573167633963
0.01097346137071288       622.7738113783721
0.011170281912174305      623.1437464265528
0.011366204645540166      623.5236350509298
0.011561526547508357      623.9134772515027
0.011756547339625332      624.313273028272
0.011951568131742307      624.7230223812373
0.0121468900337105        625.142725310399
0.012342812767076368      625.5723818157567
0.0125396333085378        626.0119918973106
0.012736771215691979      626.2954552875182
0.012933007030171178      626.577776345946
0.013128639138602195      626.8589550725936
0.013323968694306592      627.1389914674616
0.013519298250011432      627.4178855305495
0.013714930358443784      627.6956372618577
0.0139111661729252        627.9722466613857
0.014108304080082462      628.2477137291339
0.014305241249097643      628.2439659208984
0.014501279037039759      628.2428459150785
0.014696714938233999      628.2443537116749
0.014891849199866372      628.2484893106869
0.015086983461498874      628.2552527121148
0.015282419362693495      628.2646439159587
0.01547845715063625       628.2766629222184
0.015675394319652317      628.291309730894
0.015872325504405583      627.9276271084258
0.01606835738884011       627.5681522543548
0.016263787440706973      627.2128851686807
0.016458915880206496      626.861825851404
0.016654044319705866      626.5149743025243
0.016849474371572262      626.1723305220416
0.017045506256006017      625.8338945099563
0.017242437440758204      625.4996662662679
0.01743957168037589       624.9444344623942
0.017635803876907424      624.3796682578712
0.01783143240066149       623.8053676526995
0.018026758388388308      623.2215326468786
0.01822208437611492       622.6281632404088
0.01841771289986836       622.0252594332898
0.018613945096398854      621.4128212255218
0.018811079336015085      620.7908486171048
0.019007894687321662      620.1296681731625
0.01920381230049143       619.4709136332201
0.019399129129200405      618.8145849972776
0.01959414487161704       618.160682265335
0.01978916061403359       617.5092054373923
0.01998447744274231       616.8601545134496
0.020180395055911654      616.2135294935067
0.020377210407217645      615.5693303775638
0.020574360469106157      614.9860578447616
0.020770608273960874      614.424062193595
0.020966252262493188      613.8833434240637
0.021161593642948652      613.3639015361678
0.021356935023404883      612.8657365299074
0.021552579011939476      612.3888484052824
0.021748826816797996      611.9332371622928
0.021945976878691802      611.4989028009387
0.022142917141692885      611.1636095042306
0.022338957981867254      610.8719795249395
0.022534396907280062      610.6240128630657
0.02272953417907009       610.4197095186089
0.02292467145086023       610.2590694915692
0.02312011037627338       610.1420927819468
0.02331615121644832       610.0687793897414
0.023513091479450195      610.0391293149532
0.023710025135207962      609.974240805075
0.02390605945730262       609.9580243586407
0.024101491924457957      609.9904799756504
0.024296622768016963      610.071607656104
0.024491753611575823      610.2014074000016
0.02468718607873073       610.3798792073432
0.024883220400824673      610.6070230781287
0.025080154056581445      610.8828390123582
0.025277299572591536      611.2640401475787
0.025473542893039384      611.666992820647
0.02566918243840792       612.0916970315632
0.025864519396400307      612.5381527803273
0.026059856354392216      613.0063600669392
0.026255495899759323      613.4963188913991
0.026451739220204794      614.0080292537069
0.026648884736211575      614.5414911538626
0.02684569473774919       615.1211135538422
0.027041607073256636      615.7063280439517
0.027236918672681274      616.2971346241909
0.027431929210095855      616.89353329456
0.027626939747510428      617.495524055059
0.027822251346935042      618.1031069056878
0.028018163682442445      618.7162818464463
0.028214973683980002      619.3350488773348
0.028412120943583204      619.9224872765939
0.028608365984047285      620.4988853070857
0.02880400723361381       621.06424296881
0.02899934588786498       621.6185602617671
0.02919468454211669       622.1618371859568
0.029390325791684838      622.6940737413792
0.02958657083215161       623.2152699280341
0.029783718091758563      623.7254257459218
0.029980652759780888      624.0640052627427
0.030176688080480362      624.401932077506
0.030372121537075924      624.7392061902116
0.03056725336547531       625.0758276008594
0.030762385193874833      625.4117963094496
0.030957818650470807      625.747112315982
0.031153853971170976      626.0817756204568
0.031350788639194264      626.415786222874
