% Model:              brazing.mph
% Version:            COMSOL 5.3.0.223
% Date:               Oct 20 2018, 01:22
% Dimension:          1
% Nodes:              225
% Expressions:        1
% Description:        Line graph
% x                       Height
0                         642.0693272592856
2.02242572596226E-4       642.060574762737
4.040113375593453E-4      641.9885971751104
6.054635867748898E-4      641.8533944964058
8.067573541103817E-4      641.6549667266231
0.0010080510467017985     641.3933138657624
0.001209503071861434      641.0684359138236
0.0014112714639836859     640.6803328708068
0.001613513515825394      640.229004736712
0.001815803045808458      639.8298176484899
0.0020176184164428694     639.3841209490305
0.0022191170764546647     638.8919146383336
0.0024204572175778446     638.3531987163993
0.00262179740518867       637.7679731832276
0.002823296204553664      637.1362380388186
0.0030251118070788686     636.457993283172
0.003227401660948015      635.7332389162881
0.0034297372965816655     635.032013751032
0.003631598594156443      634.2936356870929
0.0038331430353414214     633.5181047244706
0.004034528845142556      632.7054208631653
0.004235914622467191      631.8555841031769
0.004437458966299354      630.9685944445054
0.004639320101874085      630.0444518871507
0.004841655511239337      629.083156431113
0.005043918276497792      628.2113781311291
0.005245706959792293      627.3271144665301
0.0054471789681153834     626.430365437316
0.00564849245128538       625.521131043487
0.005849805932728159      624.5994112850428
0.006051277935873691      623.6652061619837
0.00625306661055245       622.7185156743094
0.006455329363777148      621.7593398220201
0.0066576887471433525     620.8307401788826
0.0068595736811967985     619.9205062315045
0.007061141707903535      619.0286379798861
0.007262551112883539      618.1551354240271
0.007463960555734714      617.2999985639277
0.007665528695965537      616.4632273995878
0.00786741381892875       615.6448219310074
0.0080697734661485        614.8447821581867
0.008272395437950266      614.1280034343354
0.008474540847339949      613.4332851259842
0.008676367906616744      612.7606272331332
0.008878035577337231      612.1100297557823
0.009079703197965442      611.4814926939316
0.009281530107084053      610.8750160475812
0.00948367526660416       610.2905998167308
0.009686296889411194      609.7282440013809
0.009888748367913874      609.37682423634
0.010090724718905934      609.062817427167
0.010292383720552634      608.786223573862
0.010493883896490891      608.5470426764249
0.010695384145210549      608.3452747348556
0.010897043365029401      608.1809197491541
0.011099020079070253      608.0539777193206
0.011301472064648224      607.964448645355
0.011503924099142101      607.9798033467729
0.011705900863193036      608.0337311009066
0.011907560133099505      608.1262319077562
0.012109060430962503      608.2573057673216
0.012310560654077738      608.4269526796028
0.012512219699917606      608.6351726445997
0.012714196091111104      608.8819656623125
0.012916647604829811      609.1673317327411
0.013119269382981878      609.606480975335
0.013321414683399362      610.076285272855
0.013523241722808088      610.5767446253011
0.013724909467002238      611.1078590326734
0.013926577258472442      611.6696284949719
0.014128404439597363      612.2620530121965
0.014330549975836581      612.8851325843472
0.01453317208336263       613.5388672114241
0.014735531766219815      614.2635762938934
0.014937416940401616      615.0000536478846
0.015138985143475461      615.7482992733976
0.015340394656791169      616.5083131704325
0.015541804135826716      617.2800953389892
0.015743372236141022      618.063645779068
0.015945257239325793      618.8589644906683
0.01614761668334845       619.6660514737907
0.01634987940592303       620.5930780353002
0.016551668047823844      621.5065695859217
0.016753140015983766      622.4065261256551
0.0169544534601584        623.2929476545004
0.017155766903708087      624.1658341724577
0.017357238869994664      625.0251856795269
0.017559027508778132      625.8710021757081
0.01776129022699866       626.7032836610011
0.017963625484858744      627.5636065081422
0.018165486461237414      628.3990231638368
0.018367030641941378      629.2095336280848
0.018568416255992027      629.9951379008864
0.018769801906169285      630.7558359822416
0.018971346195167795      631.4916278721503
0.019173207351754082      632.2025135706125
0.019375542861313405      632.8884930776283
0.019577832661189145      633.597663093652
0.019779648217873542      634.2539745405132
0.019981146975907166      634.8574274182118
0.020182487123025287      635.4080217267477
0.020383827220813066      635.9057574661209
0.020585325830972126      636.3506346363315
0.020787141141585735      636.7426532373795
0.020989430597769934      637.0818132692648
0.021191672662378012      637.5321983085461
0.021393441061935803      637.9187010146494
0.02159489309031221       638.2413213875749
0.021796186783028852      638.5000594273223
0.021997480548535182      638.6949151338919
0.022198932795108938      638.8258885072835
0.022400701557758636      638.8929795474971
0.02260294412950465       638.8961882545328
0.02280539620920995       638.9486132890762
0.023007373018156245      638.9348797623956
0.02320903233274668       638.8549876744909
0.023410532675187733      638.708937025362
0.023612032942881025      638.4967278150092
0.023813692033404853      638.218360043432
0.024015668469493705      637.873833710631
0.024218120028423832      637.4631488166058
0.024420742013481003      637.0777803088013
0.02462288751935683       636.6382172031457
0.02482471476325633       636.1444594996392
0.02502638271145666       635.5965071982816
0.025228050706933344      634.9943602990732
0.025429878092549915      634.3380188020136
0.025632023834248962      633.6274827071031
0.025834646148682177      632.8627520143416
0.026037006051731277      632.0969231932067
0.026238891444565628      631.2902646997258
0.02644045986526205       630.4427765338988
0.026641869595683754      629.5544586957257
0.02684327929182417       628.6253111852063
0.027044847609757647      627.6553340023412
0.02724673283158932       626.6445271471297
0.027449092495796006      625.5928906195721
0.02765135518998453       624.5742124005253
0.027853143803698084      623.5461303706973
0.028054615743803996      622.5086445300882
0.028255929159991804      621.4617548786979
0.028457242575555555      620.4054614165266
0.028658714513790734      619.339764143574
0.028860503124391312      618.2646630598406
0.029062765814231884      617.1801581653258
0.029265100752448706      616.1018351019945
0.02946696141141544       615.0485976099951
0.029668505276199596      614.0204456893275
0.029869890575077548      613.0173793399919
0.03007127591008127       612.039398561988
0.030272819883157453      611.0865033553162
0.03047468072232762       610.1586937199761
0.030677015912237836      609.255969655968
0.030879305594778746      608.4321465815468
0.03108112103494649       607.644295924287
0.031282619677010744      606.8924176841884
0.03148395970843373       606.1765118612511
0.0316852996905265        605.4965784554751
0.031886798184716555      604.8526174668604
0.032088613378814135      604.2446288954068
0.03229090271766436       603.6726127411146
0.03249314477533616       603.2930055269231
0.03269491316800606       602.9667030373217
0.03289636518952694       602.6937052723105
0.03309765887540427       602.4740122318894
0.033298952634071295      602.3076239160586
0.033500404873789524      602.1945403248177
0.03370217362955133       602.1347614581671
0.03390441619436107       602.1282873161066
0.03410686840969767       602.228685940149
0.03430884535332711       602.3828154401231
0.0345105048019665        602.5906758160287
0.034712005278138794      602.852267067866
0.03491350567956333       603.167589195635
0.03511516490413611       603.5366421993355
0.035317141474908095      603.9594260789677
0.03551959316946952       604.4359408345314
0.035722216260139425      605.0606588460408
0.03592436286389621       605.726450811959
0.036126191200505704      606.4333167322862
0.03632786023882611       607.1812566070223
0.03652952932442421       607.9702704361673
0.036731357802754806      608.8003582197211
0.03693350464234149       609.6715199576838
0.03713612806239678       610.5837556500555
0.03733848789969145       611.5602936807909
0.037540373227224554      612.556610145856
0.03774194158292153       613.5727050452508
0.03794335124849304       614.6085783789754
0.03814476087977932       615.6642301470297
0.03834632913270157       616.7396603494137
0.03854821428921239       617.8348689861275
0.038750573887637245      618.949856057171
0.03895283596123875       620.1368836281489
0.039154623958694366      621.3100229888233
0.039356095285438375      622.4692741391941
0.03955740808971597       623.6146370792616
0.03975872089337115       624.7461118090254
0.03996019221824938       625.863698328486
0.04016198021260023       626.9673966376428
0.04036424228186526       628.0572067364961
0.040566577948397485      629.1342351823592
0.040768439330593605      630.1764151117502
0.04096998391520435       631.1837465246692
0.04117136993220262       632.1562294211161
0.04137275598532357       633.093863801091
0.04157430067821714       633.9966496645936
0.04177616224060133       634.8645870116244
0.0419784981588055        635.697675842183
0.04218078754816035       636.5184765203713
0.04238260269718259       637.2758509532537
0.04258410104946696       637.9697991408301
0.04278544079179545       638.6003210831008
0.04298678048479618       639.1674167800654
0.043188278689213704      639.6710862317243
0.043390093592177985      640.1113294380772
0.04359238263785921       640.4881463991242
0.043794623705544454      640.9269604183203
0.04399639111513442       641.2968697484662
0.04419784215819482       641.5978743895618
0.04439913486792596       641.8299743416071
0.044600427650446826      641.9931696046021
0.04480187891170468       642.0874601785468
0.045003646684386715      642.1128460634415
0.04520588825921017       642.0693272592856
