% Model:              brazing.mph
% Version:            COMSOL 5.3.0.223
% Date:               Oct 20 2018, 01:49
% Dimension:          1
% Nodes:              225
% Expressions:        1
% Description:        Line graph
% x                       Height
0                         662.6595379318358
2.02242572596226E-4       662.6492581605771
4.040113375593453E-4      662.5785821581059
6.054635867748898E-4      662.4475099244221
8.067573541103817E-4      662.2560414595258
0.0010080510467017985     662.004176763417
0.001209503071861434      661.6919158360956
0.0014112714639836859     661.3192586775616
0.001613513515825394      660.8862052878151
0.001815803045808458      660.4907925912444
0.0020176184164428694     660.0508705277343
0.0022191170764546647     659.5664390972851
0.0024204572175778446     659.0374982998964
0.00262179740518867       658.4640481355683
0.002823296204553664      657.8460886043009
0.0030251118070788686     657.1836197060943
0.003227401660948015      656.4766414409484
0.0034297372965816655     655.7878552859988
0.003631598594156443      655.0641888063756
0.0038331430353414214     654.3056420020787
0.004034528845142556      653.5122148731082
0.004235914622467191      652.6839074194639
0.004437458966299354      651.8207196411461
0.004639320101874085      650.9226515381546
0.004841655511239337      649.9897031104895
0.005043918276497792      649.1281912163953
0.005245706959792293      648.255917233937
0.0054471789681153834     647.3728811631148
0.00564849245128538       646.4790830039283
0.005849805932728159      645.5745227563777
0.006051277935873691      644.6592004204632
0.00625306661055245       643.7331159961846
0.006455329363777148      642.7962694835418
0.0066576887471433525     641.8879842743586
0.0068595736811967985     640.997857955652
0.007061141707903535      640.125890527422
0.007262551112883539      639.2720819896685
0.007463960555734714      638.4364323423918
0.007665528695965537      637.6189415855916
0.00786741381892875       636.819609719268
0.0080697734661485        636.038436743421
0.008272395437950266      635.3317398698623
0.008474540847339949      634.6487125001304
0.008676367906616744      633.9893546342255
0.008878035577337231      633.3536662721473
0.009079703197965442      632.741647413896
0.009281530107084053      632.1532980594716
0.00948367526660416       631.5886182088741
0.009686296889411194      631.0476078621034
0.009888748367913874      630.693606408363
0.010090724718905934      630.3777605663121
0.010292383720552634      630.1000703359502
0.010493883896490891      629.8605357172779
0.010695384145210549      629.6591567102948
0.010897043365029401      629.495933315001
0.011099020079070253      629.3708655313966
0.011301472064648224      629.2839533594814
0.011503924099142101      629.2932867778721
0.011705900863193036      629.3417691859777
0.011907560133099505      629.4294005837978
0.012109060430962503      629.5561809713325
0.012310560654077738      629.722110348582
0.012512219699917606      629.9271887155461
0.012714196091111104      630.1714160722249
0.012916647604829811      630.4547924186184
0.013119269382981878      630.8763916606471
0.013321414683399362      631.329111353653
0.013523241722808088      631.8129514976362
0.013724909467002238      632.3279120925966
0.013926577258472442      632.8739931385344
0.014128404439597363      633.4511946354493
0.014330549975836581      634.0595165833416
0.01453317208336263       634.698958982211
0.014735531766219815      635.4027497480372
0.014937416940401616      636.119598305004
0.015138985143475461      636.8495046531115
0.015340394656791169      637.5924687923596
0.015541804135826716      638.3484907227484
0.015743372236141022      639.1175704442777
0.015945257239325793      639.8997079569476
0.01614761668334845       640.6949032607582
0.01634987940592303       641.5921771886186
0.016551668047823844      642.477682074821
0.016753140015983766      643.3514179193652
0.0169544534601584        644.2133847222514
0.017155766903708087      645.0635824834795
0.017357238869994664      645.9020112030495
0.017559027508778132      646.7286708809615
0.01776129022699866       647.5435615172155
0.017963625484858744      648.3844824967756
0.018165486461237414      649.2013166525032
0.018367030641941378      649.9940639843984
0.018568416255992027      650.7627244924611
0.018769801906169285      651.5072981766913
0.018971346195167795      652.2277850370889
0.019173207351754082      652.924185073654
0.019375542861313405      653.5964982863867
0.019577832661189145      654.2844117813148
0.019779648217873542      654.9229074038499
0.019981146975907166      655.511985153992
0.020182487123025287      656.0516450317413
0.020383827220813066      656.5418870370975
0.020585325830972126      656.9827111700608
0.020787141141585735      657.374117430631
0.020989430597769934      657.7161058188084
0.021191672662378012      658.145233173671
0.021393441061935803      658.5135390389803
0.02159489309031221       658.8210234147361
0.021796186783028852      659.0676863009386
0.021997480548535182      659.2535276975876
0.022198932795108938      659.3785476046834
0.022400701557758636      659.4427460222255
0.02260294412950465       659.4461229502143
0.02280539620920995       659.4902916093637
0.023007373018156245      659.471345828786
0.02320903233274668       659.3892856084811
0.023410532675187733      659.2441109484491
0.023612032942881025      659.0358218486899
0.023813692033404853      658.7644183092036
0.024015668469493705      658.4299003299903
0.024218120028423832      658.0322679110499
0.024420742013481003      657.6467084658882
0.02462288751935683       657.2094796629817
0.02482471476325633       656.7205815023306
0.02502638271145666       656.1800139839346
0.025228050706933344      655.587777107794
0.025429878092549915      654.9438708739084
0.025632023834248962      654.2482952822784
0.025834646148682177      653.5010503329033
0.026037006051731277      652.747860413865
0.026238891444565628      651.9561099239785
0.02644045986526205       651.1257988632435
0.026641869595683754      650.2569272316603
0.02684327929182417       649.3494950292286
0.027044847609757647      648.4035022559485
0.02724673283158932       647.4189489118203
0.027449092495796006      646.3958349968436
0.02765135518998453       645.3926286766083
0.027853143803698084      644.3815367212111
0.028054615743803996      643.3625591306521
0.028255929159991804      642.3356959049312
0.028457242575555555      641.3009470440485
0.028658714513790734      640.2583125480039
0.028860503124391312      639.2077924167975
0.029062765814231884      638.1493866504293
0.029265100752448706      637.0969785959227
0.02946696141141544       636.0693676762593
0.029668505276199596      635.0665538914388
0.029869890575077548      634.0885372414615
0.03007127591008127       633.1353177263272
0.030272819883157453      632.2068953460362
0.03047468072232762       631.3032701005882
0.030677015912237836      630.4244419899832
0.030879305594778746      629.616230760843
0.03108112103494649       628.8451453799406
0.031282619677010744      628.1111858472759
0.03148395970843373       627.4143521628489
0.0316852996905265        626.7546443266597
0.031886798184716555      626.1320623387081
0.032088613378814135      625.5466061989941
0.03229090271766436       624.9982759075181
0.03249314477533616       624.6206166123638
0.03269491316800606       624.2965335338099
0.03289636518952694       624.0260266718564
0.03309765887540427       623.8090960265031
0.033298952634071295      623.6457415977502
0.033500404873789524      623.5359633855976
0.03370217362955133       623.4797613900455
0.03390441619436107       623.4771356110934
0.03410686840969767       623.5731470241154
0.03430884535332711       623.7230258438227
0.0345105048019665        623.9267720702153
0.034712005278138794      624.1843857032933
0.03491350567956333       624.4958667430566
0.03511516490413611       624.8612151895052
0.035317141474908095      625.2804310426392
0.03551959316946952       625.7535143024585
0.035722216260139425      626.3601619759766
0.03592436286389621       627.0081039459048
0.036126191200505704      627.6973402122436
0.03632786023882611       628.4278707749926
0.03652952932442421       629.1996956341519
0.036731357802754806      630.0128147897215
0.03693350464234149       630.8672282417015
0.03713612806239678       631.7629359900917
0.03733848789969145       632.7166028951934
0.037540373227224554      633.6906833812363
0.03774194158292153       634.6851774482201
0.03794335124849304       635.700085096145
0.03814476087977932       636.7354063250109
0.03834632913270157       637.7911411348177
0.03854821428921239       638.8672895255658
0.038750573887637245      639.9638514972547
0.03895283596123875       641.1196305733703
0.039154623958694366      642.2630611279369
0.039356095285438375      643.3941431609545
0.03955740808971597       644.5128766724232
0.03975872089337115       645.619261662343
0.03996019221824938       646.7132981307136
0.04016198021260023       647.7949860775356
0.04036424228186526       648.8643255028082
0.040566577948397485      649.920874504723
0.040768439330593605      650.9436785658365
0.04096998391520435       651.9327376861492
0.04117136993220262       652.8880518656607
0.04137275598532357       653.8096211043711
0.04157430067821714       654.6974454022807
0.04177616224060133       655.551524759389
0.0419784981588055        656.3718591756965
0.04218078754816035       657.1731656985156
0.04238260269718259       657.9147853577175
0.04258410104946696       658.5967181533022
0.04278544079179545       659.2189640852696
0.04298678048479618       659.7815231536198
0.043188278689213704      660.284395358353
0.043390093592177985      660.7275806994688
0.04359238263785921       661.1110791769675
0.043794623705544454      661.5350756174588
0.04399639111513442       661.893232316198
0.04419784215819482       662.1855492731848
0.04439913486792596       662.4120264884195
0.044600427650446826      662.572663961902
0.04480187891170468       662.6674616936322
0.045003646684386715      662.6964196836101
0.04520588825921017       662.6595379318358
