% Model:              brazing.mph
% Version:            COMSOL 5.3.0.223
% Date:               Oct 20 2018, 03:15
% Dimension:          1
% Nodes:              225
% Expressions:        1
% Description:        Line graph
% x                       Height
0                         617.425064831458
2.1191841480136804E-4     617.335588749465
4.2353438892247565E-4     617.2077182622108
6.349689892252786E-4      617.0414533696954
8.463435942227858E-4      616.8367940719186
0.001057779685752053      616.5937403688808
0.001269398639759412      616.3122922605814
0.001481321517995422      615.992449747021
0.0017252358262731596     615.5656199739501
0.0019686866163640313     615.1078674791084
0.0022118589563155885     614.6191922624956
0.002454938550168189      614.099594324112
0.0026981113144448556     613.5490736639578
0.0029415629522145732     612.9676302820322
0.0031854785295931678     612.355264178336
0.0034450106912723537     611.6048994973279
0.0037039863009040125     610.8228341733088
0.003962627412610827      610.0090682062786
0.0042211569424298        609.1636015962373
0.004479798094906585      608.2864343431852
0.004738773785972872      607.3775664471218
0.004998306069542035      606.4369979080475
0.005274868491808245      605.3424632204544
0.005550758931995686      604.2305230071173
0.0058262454501036105     603.101177268036
0.006101597285810183      601.954426003211
0.006377084073678616      600.7902692126421
0.006652975052596927      599.6087068963288
0.006929538280995558      598.4097390542719
0.007206101510950518      597.171636180878
0.007481992491406557      595.9502295805935
0.007757479280801014      594.7455192534184
0.00803283111802884       593.5575051993528
0.008308317637660222      592.386187418397
0.008584208079380276      591.2315659105503
0.008860770503195153      590.0936406758134
0.009120302815147717      589.0277311607839
0.00937927853441616       588.0024021711203
0.009637919714987194      587.0176537068226
0.009896449272866283      586.0734857678909
0.010155090412673047      585.1698983543254
0.010414066050518256      584.3068914661255
0.01067359824059789       583.4844651032919
0.010917512776055054      582.7359839228801
0.011160965100129169      582.038298754574
0.011404139717480647      581.3914095983737
0.01164722176512739       580.7953164542791
0.011890396591516505      580.2500193222907
0.012133849333188814      579.7555182024075
0.012377764493855997      579.3118130946305
0.01258968694000722       578.9677531984054
0.012801305803204788      578.6642361514055
0.013012742322906452      578.4012619536306
0.013224118052332232      578.178830605081
0.01343555464954572       577.9969421057568
0.013647173667633327      577.8555964556576
0.013859096345786744      577.7547936547836
0.014071014760598048      577.7103976943769
0.014282630734729056      577.7056341176524
0.01449406533504172       577.7405029246102
0.014705439940049088      577.8150041152502
0.014916876031588231      577.9291376895727
0.015128494985605482      578.0829036475774
0.015340417863851432      578.2763019892643
0.01558433217214941       578.5157680658812
0.015827782962260412      578.8136338547151
0.016070955302232025      579.169899355766
0.016314034896104664      579.5845645690341
0.0165572076604014        580.0576294945193
0.01680065929819124       580.5890941322216
0.01704457487559009       581.178958482141
0.01730410703726679       581.8231803318245
0.017563082646895985      582.5070691536135
0.01782172375860034       583.2306249475082
0.018080253288416847      583.9938477135086
0.01833889444089119       584.7967374516147
0.018597870131955005      585.6392941618262
0.018857402415521692      586.5215178441435
0.019133964837753384      587.4719339344662
0.019409855277906563      588.4401059935259
0.019685341795980367      589.4260340213227
0.019960693631652874      590.4297180178569
0.0202361804194872        591.4511579831285
0.020512071398371242      592.4903539171371
0.020788634626735362      593.547305819883
0.02106519785666259       594.5837645011472
0.021341088837091095      595.6079178838254
0.021616575626458134      596.6197659679174
0.02189192746365859       597.6193087534233
0.022167413983262562      598.6065462403435
0.02244330442495508       599.5814784286772
0.022719866848742224      600.5441053184251
0.022979399160698737      601.3584643852824
0.023238374879971102      602.1501993008304
0.023497016060546046      602.9193100650691
0.023755545618429033      603.6657966779984
0.02401418675823971       604.3896591396186
0.024273162396088833      605.0908974499293
0.024532694586172417      605.7695116089309
0.02477660912165014       606.337534975228
0.02502006144574469       606.8729501277322
0.025263236063116538      607.3757570664435
0.025506318110783622      607.8459557913619
0.025749492937193107      608.2835463024878
0.02599294567888585       608.6885285998203
0.026236860839573585      609.0609026833603
0.026448783285734738      609.3330246554343
0.02666040214894219       609.5862240457102
0.026871838668653707      609.8205008541876
0.027083214398089334      610.0358550808668
0.027294650995312687      610.232286725748
0.027506270013410168      610.4097957888307
0.02771819269157351       610.5683822701153
0.02793011110637494       610.6435442078637
0.028141727080496122      610.6982953714477
0.028353161680798985      610.7326357608673
0.028564536285796558      610.7465653761224
0.028775972377325904      610.7400842172135
0.028987591331333325      610.7131922841397
0.029199514209569403      610.6658895769018
0.02944342851784522       610.4836836361284
0.02968687930793418       610.2604970660853
0.02993005164788383       609.9963298667728
0.030173131241734534      609.6911820381908
0.0304163040060093        609.3450535803396
0.0306597556437771        608.9579444932186
0.030903671221153783      608.5298547768283
0.031163203382828072      607.9221075944121
0.03142217899245488       607.2700676319829
0.03168082010415685       606.5737348895407
0.03193934963397098       605.8331093670857
0.032197990786442934      605.048191064618
0.03245696647750436       604.2189799821371
0.032716498761068635      603.3454761196434
0.03299306118333142       602.2487826975353
0.03326895162351545       601.1311432325173
0.03354443814161999       599.9925577245897
0.03381978997732317       598.8330261737522
0.034095276765188226      597.6525485800054
0.03437116774410313       596.4511249433484
0.03464773097249833       595.2287552637819
0.034924294202460265      593.9427200258951
0.03520018518292322       592.6753911906069
0.03547567197232456       591.4267687579171
0.035751023809559274      590.1968527278259
0.036026510329197556      588.9856431003333
0.036302400770924524      587.7931398754389
0.03657896319474637       586.6193430531432
0.036838495506703706      585.5191412907775
0.03709747122597688       584.4700406411723
0.037356112406552636      583.4720411043273
0.03761464196443644       582.5251426802428
0.03787328310424792       581.6293453689186
0.03813225874209787       580.7846491703547
0.03839179093218227       579.9910540845511
0.03863570546763781       579.2735887551587
0.038879157791710306      578.6190386234728
0.03912233240906017       578.0274036894931
0.03936541445670531       577.49868395322
0.039608589283092806      577.0328794146536
0.039852042024763494      576.6299900737935
0.04009595718542905       576.2900159306399
0.040307879631580334      576.0284815182623
0.04051949849477797       575.8172468027642
0.0407309350144797        575.6563117841454
0.040942310743905544      575.5456764624058
0.04115374734111909       575.4853408375461
0.04136536635920676       575.4753049095654
0.04157728903736024       575.5155686784642
0.04178920745215007       575.6118543232199
0.042000823426259694      575.7569153272726
0.042212258026551035      575.9507516906223
0.04242363263153709       576.1933634132691
0.0426350687230549        576.4847504952132
0.042846687677050764      576.8249129364541
0.04305861055527523       577.2138507369921
0.04330252486354604       577.686416560148
0.043545975653630026      578.2254978059841
0.04378914799357473       578.8310944745004
0.044032227587420474      579.5032065656969
0.04427540035169028       580.2418340795738
0.04451885198945311       581.0469770161305
0.044762767566824783      581.9186353753676
0.045022299728516735      582.8754554555719
0.04528127533816108       583.8775239018997
0.045539916449880535      584.9248407143509
0.045798445979712124      586.0174058929257
0.046057087132201545      587.1552194376243
0.04631606282328052       588.338281348446
0.046575595106862454      589.5665916253914
0.04685215752913061       590.8782544987605
0.04712804796931999       592.2117824092059
0.04740353448742985       593.5671753567275
0.04767888632313835       594.9444333413255
0.04795437311100872       596.3435563630002
0.048230264089928976      597.7645444217508
0.048506827318329566      599.207397517578
0.04878339054829114       600.5797740373582
0.049059281528753745      601.9314920097436
0.04933476831815475       603.262551434734
0.0496101201553891        604.5729523123296
0.04988560667502701       605.8626946425303
0.05016149711675364       607.131778425336
0.050438059540575134      608.380203660747
0.05069759185254397       609.3901846549863
0.05095656757182859       610.3545349290981
0.05121520875241573       611.2732544830823
0.05147373831031092       612.1463433169388
0.051732379450133786      612.973801430668
0.05199135508799517       613.7556288242694
0.05225088727809108       614.4918254977433
0.0524948018135407        615.0687982904614
0.052738254137607306      615.5886025091042
0.05298142875495131       616.0512381536715
0.05322451080259058       616.4567052241636
0.0534676856289722        616.8050037205805
0.05371113837063701       617.0961336429217
0.05395505353129665       617.3300949911878
0.05416697597743634       617.4675238250661
0.054378594840622414      617.5636654209981
0.05459003136031263       617.6185197789831
0.05480140708972696       617.6320868990217
0.05501284368692898       617.6043667811139
0.0552244627050051        617.5353594252591
0.05543638538314697       617.425064831458
