% Model:              brazing.mph
% Version:            COMSOL 5.3.0.223
% Date:               Oct 20 2018, 00:27
% Dimension:          1
% Nodes:              161
% Expressions:        1
% Description:        Line graph
% x                       Height
0                         643.0665245484203
1.9693985890610136E-4     643.0430103047652
3.9298030043864816E-4     643.028949778232
5.884188308682271E-4      643.0243429688203
7.835557095112735E-4      643.0291898765305
9.786925881542028E-4      643.0434905013624
0.0011741311185834375     643.0672448433161
0.0013701715601154056     643.1004529023913
0.0015671114190207022     643.1431146785885
0.0017642608961497635     642.9032547282701
0.0019605081241513326     642.6592499956547
0.0021561515411346144     642.4111004807419
0.002351492352702621      642.1588061835321
0.0025468331642698894     641.902367104025
0.0027424765812509564     641.6417832422206
0.0029387238092488436     641.3770545981192
0.0031358732863727766     641.1081811717205
0.0033326885608882563     640.7321554437461
0.0035286060983021257     640.3614056398538
0.0037239228519497995     639.995931760043
0.003918938519653848      639.6357338043142
0.004113954187357973      639.2808117726671
0.004309270941005876      638.9311656651017
0.004505188478420127      638.5867954816183
0.004702003752936137      638.2477012222165
0.004899138702461749      637.8915286989787
0.005095371599302965      637.5526799317357
0.005291000816927052      637.2311549204884
0.005486327495291825      636.926953665236
0.005681654173656831      636.6400761659789
0.0058772833912816074     636.3705224227169
0.0060735162881239745     636.1182924354503
0.006270651237651189      635.8833862041786
0.006467582778148322      635.6998094647748
0.006663615013526554      635.5500314201686
0.006859045413116663      635.4340520703595
0.0070541741987231454     635.351871415348
0.007249302984329781      635.3034894551338
0.007444733383920351      635.288906189717
0.007640765619299351      635.3081216190976
0.007837697159797551      635.3611357432756
0.008034634474091872      635.3592075880362
0.008230672405352359      635.3949806945558
0.008426108448549354      635.4684550628346
0.008621242851524007      635.5796306928726
0.008816377254498534      635.7285075846698
0.009011813297695145      635.9150857382261
0.009207851228955002      636.1393651535417
0.00940478854324844       636.4013458306164
0.00960192671152544       636.7196785507588
0.00979816278359587       637.0537650308665
0.009993795147248338      637.4036052709396
0.010189124956984269      637.7691992709781
0.010384454766719743      638.150547030982
0.010580087130370853      638.5476485509513
0.010776323202439026      638.9605038308861
0.01097346137071288       639.3891128707862
0.011170281912174305      639.7701057177372
0.011366204645540166      640.161154813431
0.011561526547508357      640.5622601578677
0.011756547339625332      640.9734217510472
0.011951568131742307      641.3946395929696
0.0121468900337105        641.8259136836347
0.012342812767076368      642.2672440230426
0.0125396333085378        642.7186306111934
0.012736771215691979      643.0113561691189
0.012933007030171178      643.302283148441
0.013128639138602195      643.5914115491594
0.013323968694306592      643.8787413712744
0.013519298250011432      644.1642726147858
0.013714930358443784      644.4480052796936
0.0139111661729252        644.729939365998
0.014108304080082462      645.0100748736987
0.014305241249097643      645.004640788756
0.014501279037039759      645.001151563326
0.014696714938233999      644.9996071974087
0.014891849199866372      645.0000076910044
0.015086983461498874      645.0023530441129
0.015282419362693495      645.0066432567339
0.01547845715063625       645.0128783288678
0.015675394319652317      645.0210582605146
0.015872325504405583      644.6420641686683
0.01606835738884011       644.2667828712584
0.016263787440706973      643.8952143682849
0.016458915880206496      643.5273586597476
0.016654044319705866      643.1632157456468
0.016849474371572262      642.8027856259822
0.017045506256006017      642.4460683007541
0.017242437440758204      642.0930637699622
0.01743957168037589       641.5151729099811
0.017635803876907424      640.9275161353597
0.01783143240066149       640.3300934460983
0.018026758388388308      639.7229048421968
0.01822208437611492       639.1059503236553
0.01841771289986836       638.4792298904736
0.018613945096398854      637.8427435426518
0.018811079336015085      637.1964912801899
0.019007894687321662      636.5107306929402
0.01920381230049143       635.8278299292107
0.019399129129200405      635.1477889890015
0.01959414487161704       634.4706078723126
0.01978916061403359       633.796286579144
0.01998447744274231       633.1248251094954
0.020180395055911654      632.4562234633673
0.020377210407217645      631.7904816407594
0.020574360469106157      631.1872159670608
0.020770608273960874      630.606148164498
0.020966252262493188      630.0472782330716
0.021161593642948652      629.5106061727811
0.021356935023404883      628.9961319836267
0.021552579011939476      628.5038556656085
0.021748826816797996      628.0337772187263
0.021945976878691802      627.5858966429802
0.022142917141692885      627.2393169439563
0.022338957981867254      626.9377940625188
0.022534396907280062      626.6813279986676
0.02272953417907009       626.4699187524028
0.02292467145086023       626.3035663237245
0.02312011037627338       626.1822707126324
0.02331615121644832       626.1060319191267
0.023513091479450195      626.0748499432075
0.023710025135207962      626.0079629512896
0.02390605945730262       625.9912387712911
0.024101491924457957      626.0246774032122
0.024296622768016963      626.1082788470526
0.024491753611575823      626.2420431028124
0.02468718607873073       626.4259701704916
0.024883220400824673      626.6600600500902
0.025080154056581445      626.9443127416082
0.025277299572591536      627.336408924491
0.025473542893039384      627.7511921173807
0.02566918243840792       628.1886623202776
0.025864519396400307      628.6488195331815
0.026059856354392216      629.1316637560925
0.026255495899759323      629.6371949890107
0.026451739220204794      630.1654132319359
0.026648884736211575      630.7163184848682
0.02684569473774919       631.3145097833868
0.027041607073256636      631.9188716578647
0.027236918672681274      632.5294041083015
0.027431929210095855      633.1461071346974
0.027626939747510428      633.7689807370525
0.027822251346935042      634.3980249153667
0.028018163682442445      635.0332396696399
0.028214973683980002      635.6746249998722
0.028412120943583204      636.2848734810225
0.028608365984047285      636.8839447776819
0.02880400723361381       637.47183888985
0.02899934588786498       638.0485558175272
0.02919468454211669       638.6140955607134
0.029390325791684838      639.1684581194086
0.02958657083215161       639.7116434936128
0.029783718091758563      640.2436516833259
0.029980652759780888      640.60079726298
0.030176688080480362      640.9567181364862
0.030372121537075924      641.3114143038448
0.03056725336547531       641.6648857650555
0.030762385193874833      642.0171325201184
0.030957818650470807      642.3681545690334
0.031153853971170976      642.7179519118008
0.031350788639194264      643.0665245484203
