% Model:              brazing.mph
% Version:            COMSOL 5.3.0.223
% Date:               Oct 20 2018, 01:34
% Dimension:          1
% Nodes:              225
% Expressions:        1
% Description:        Line graph
% x                       Height
0                         648.3451981314003
2.1191841480136804E-4     648.2558658967474
4.2353438892247565E-4     648.125354224404
6.349689892252786E-4      647.95366311437
8.463435942227858E-4      647.7407925666455
0.001057779685752053      647.4867425812306
0.001269398639759412      647.191513158125
0.001481321517995422      646.8551042973289
0.0017252358262731596     646.405200665392
0.0019686866163640313     645.9230465814777
0.0022118589563155885     645.408642045586
0.002454938550168189      644.861987057717
0.0026981113144448556     644.2830816178711
0.0029415629522145732     643.6719257260473
0.0031854785295931678     643.0285193822465
0.0034450106912723537     642.2320993630552
0.0037039863009040125     641.4023002440994
0.003962627412610827      640.5391220253791
0.0042211569424298        639.6425647068943
0.004479798094906585      638.712628288645
0.004738773785972872      637.7493127706309
0.004998306069542035      636.7526181528526
0.005274868491808245      635.5862764268701
0.005550758931995686      634.4017783743374
0.0058262454501036105     633.1991239952545
0.006101597285810183      631.9783132896216
0.006377084073678616      630.7393462574388
0.006652975052596927      629.4822228987056
0.006929538280995558      628.2069432134225
0.007206101510950518      626.8880549535763
0.007481992491406557      625.5880576013691
0.007757479280801014      624.3069511568007
0.00803283111802884       623.0447356198711
0.008308317637660222      621.8014109905805
0.008584208079380276      620.5769772689285
0.008860770503195153      619.3714344549156
0.009120302815147717      618.240729753693
0.00937927853441616       617.1539807958577
0.009637919714987194      616.1111875814094
0.009896449272866283      615.1123501103481
0.010155090412673047      614.1574683826743
0.010414066050518256      613.2465423983872
0.01067359824059789       612.3795721574874
0.010917512776055054      611.5902053067908
0.011160965100129169      610.8554617508396
0.011404139717480647      610.1753414896333
0.01164722176512739       609.549844523172
0.011890396591516505      608.9789708514561
0.012133849333188814      608.462720474485
0.012377764493855997      608.001093392259
0.01258968694000722       607.6456521144318
0.012801305803204788      607.3332865795825
0.013012742322906452      607.0639967877112
0.013224118052332232      606.837782738818
0.01343555464954572       606.6546444329031
0.013647173667633327      606.5145818699658
0.013859096345786744      606.4175950500069
0.014071014760598048      606.3832588049015
0.014282630734729056      606.3910962709841
0.01449406533504172       606.4411074482549
0.014705439940049088      606.5332923367137
0.014916876031588231      606.6676509363607
0.015128494985605482      606.8441832471955
0.015340417863851432      607.0628892692185
0.01558433217214941       607.3326888306916
0.015827782962260412      607.6651602419948
0.016070955302232025      608.0603035031281
0.016314034896104664      608.5181186140918
0.0165572076604014        609.0386055748859
0.01680065929819124       609.6217643855097
0.01704457487559009       610.267595045964
0.01730410703726679       610.9716883509452
0.017563082646895985      611.7179296231815
0.01782172375860034       612.5063188626725
0.018080253288416847      613.3368560694187
0.01833889444089119       614.20954124342
0.018597870131955005      615.1243743846758
0.018857402415521692      616.0813554931868
0.019133964837753384      617.1113821701391
0.019409855277906563      618.1603187651044
0.019685341795980367      619.2281652780823
0.019960693631652874      620.3149217090732
0.0202361804194872        621.4205880580774
0.020512071398371242      622.545164325094
0.020788634626735362      623.6886505101237
0.02106519785666259       624.8116657877683
0.021341088837091095      625.9214001521497
0.021616575626458134      627.0178536032678
0.02189192746365859       628.1010261411227
0.022167413983262562      629.1709177657148
0.02244330442495508       630.2275284770432
0.022719866848742224      631.2708582751087
0.022979399160698737      632.146816992419
0.023238374879971102      632.9985379654123
0.023497016060546046      633.8260211940883
0.023755545618429033      634.6292666784473
0.02401418675823971       635.4082744184894
0.024273162396088833      636.163044414214
0.024532694586172417      636.8935766656217
0.02477660912165014       637.4996866892881
0.02502006144574469       638.0699215074372
0.025263236063116538      638.6042811200693
0.025506318110783622      639.1027655271844
0.025749492937193107      639.5653747287827
0.02599294567888585       639.9921087248634
0.026236860839573585      640.3829675154274
0.026448783285734738      640.6645505559644
0.02666040214894219       640.9273093371844
0.026871838668653707      641.1712438590878
0.027083214398089334      641.3963541216741
0.027294650995312687      641.602640124944
0.027506270013410168      641.7901018688964
0.02771819269157351       641.9587393535323
0.02793011110637494       642.0290327696758
0.028141727080496122      642.0793884670073
0.028353161680798985      642.1098064455264
0.028564536285796558      642.1202867052333
0.028775972377325904      642.1108292461286
0.028987591331333325      642.0814340682113
0.029199514209569403      642.0321011714819
0.02944342851784522       641.8371194220362
0.02968687930793418       641.5972859646092
0.02993005164788383       641.3126007992009
0.030173131241734534      640.9830639258115
0.0304163040060093        640.6086753444409
0.0306597556437771        640.1894350550889
0.030903671221153783      639.7253430577558
0.031163203382828072      639.0616082719544
0.03142217899245488       638.3496673811215
0.03168082010415685       637.5895203852572
0.03193934963397098       636.7811672843615
0.032197990786442934      635.9246080784346
0.03245696647750436       635.0198427674761
0.032716498761068635      634.0668713514864
0.03299306118333142       632.8704279070544
0.03326895162351545       631.6507917432566
0.03354443814161999       630.4079628600932
0.03381978997732317       629.1419412575639
0.034095276765188226      627.852726935669
0.03437116774410313       626.5403198944081
0.03464773097249833       625.2047201337816
0.034924294202460265      623.8019580730901
0.03520018518292322       622.4196780820557
0.03547567197232456       621.0578801606786
0.035751023809559274      619.7165643089586
0.036026510329197556      618.395730526896
0.036302400770924524      617.0953788144905
0.03657896319474637       615.8155091717422
0.036838495506703706      614.615879299184
0.03709747122597688       613.4716846782213
0.037356112406552636      612.3829253088539
0.03761464196443644       611.3496011910821
0.03787328310424792       610.371712324906
0.03813225874209787       609.4492587103251
0.03839179093218227       608.5822403473397
0.03863570546763781       607.7968564858542
0.038879157791710306      607.0793960801068
0.03912233240906017       606.4298591300974
0.03936541445670531       605.8482456358262
0.039608589283092806      605.3345555972934
0.039852042024763494      604.8887890144981
0.04009595718542905       604.5109458874413
0.040307879631580334      604.2195630287353
0.04051949849477797       603.9820660899852
0.0407309350144797        603.7984550711913
0.040942310743905544      603.6687299723533
0.04115374734111909       603.5928907934715
0.04136536635920676       603.5709375345457
0.04157728903736024       603.602870195576
0.04178920745215007       603.6963030552681
0.042000823426259694      603.8420367496551
0.042212258026551035      604.0400712787368
0.04242363263153709       604.2904066425132
0.0426350687230549        604.5930428409848
0.042846687677050764      604.9479798741507
0.04305861055527523       605.3552177420117
0.04330252486354604       605.8503132419968
0.043545975653630026      606.4173496084302
0.04378914799357473       607.0563268413117
0.044032227587420474      607.7672449406417
0.04427540035169028       608.5501039064201
0.04451885198945311       609.4049037386466
0.044762767566824783      610.3316444373216
0.045022299728516735      611.3492409154985
0.04528127533816108       612.4154558054576
0.045539916449880535      613.5302891071985
0.045798445979712124      614.6937408207216
0.046057087132201545      615.905810946027
0.04631606282328052       617.1664994831142
0.046575595106862454      618.4758064319836
0.04685215752913061       619.8765122037023
0.04712804796931999       621.3012219392915
0.04740353448742985       622.7499356387511
0.04767888632313835       624.2226533020813
0.04795437311100872       625.7193749292823
0.048230264089928976      627.2401005203533
0.048506827318329566      628.7848300752951
0.04878339054829114       630.2612504061622
0.049059281528753745      631.7159730946119
0.04933476831815475       633.1489981406439
0.0496101201553891        634.5603255442588
0.04988560667502701       635.9499553054566
0.05016149711675364       637.3178874242367
0.050438059540575134      638.6641219005995
0.05069759185254397       639.7487619637758
0.05095656757182859       640.7848531615391
0.05121520875241573       641.7723954938887
0.05147373831031092       642.7113889608252
0.051732379450133786      643.6018335623488
0.05199135508799517       644.4437292984586
0.05225088727809108       645.2370761691554
0.0524948018135407        645.8552116163376
0.052738254137607306      646.4114988608146
0.05298142875495131       646.9059379025862
0.05322451080259058       647.3385287416529
0.0534676856289722        647.7092713780145
0.05371113837063701       648.0181658116707
0.05395505353129665       648.2652120426218
0.05416697597743634       648.4072492554238
0.054378594840622414      648.5057495919958
0.05459003136031263       648.5607130523372
0.05480140708972696       648.5721396364484
0.05501284368692898       648.5400293443295
0.0552244627050051        648.46438217598
0.05543638538314697       648.3451981314003
