% Model:              brazing.mph
% Version:            COMSOL 5.3.0.223
% Date:               Oct 20 2018, 01:17
% Dimension:          1
% Nodes:              225
% Expressions:        1
% Description:        Line graph
% x                       Height
0                         639.7162448155054
2.1191841480136804E-4     639.6277052762998
4.2353438892247565E-4     639.4996256840055
6.349689892252786E-4      639.3320060386229
8.463435942227858E-4      639.124846340152
0.001057779685752053      638.8781465885928
0.001269398639759412      638.5919067839448
0.001481321517995422      638.2661269262086
0.0017252358262731596     637.8312461601566
0.0019686866163640313     637.3650737957979
0.0022118589563155885     636.8676098331325
0.002454938550168189      636.3388542721603
0.0026981113144448556     635.7788071128816
0.0029415629522145732     635.1874683552959
0.0031854785295931678     634.5648379994036
0.0034450106912723537     633.796677364998
0.0037039863009040125     632.996500054702
0.003962627412610827      632.1643060685157
0.0042211569424298        631.300095406439
0.004479798094906585      630.4038680684722
0.004738773785972872      629.4756240546147
0.004998306069542035      628.5153633648672
0.005274868491808245      627.3916738232481
0.005550758931995686      626.2506227529012
0.0058262454501036105     625.092210153826
0.006101597285810183      623.9164360260231
0.006377084073678616      622.7233003694923
0.006652975052596927      621.5128031842332
0.006929538280995558      620.2849444702464
0.007206101510950518      619.0133856758317
0.007481992491406557      617.7597166476236
0.007757479280801014      616.523937385622
0.00803283111802884       615.3060478898273
0.008308317637660222      614.1060481602393
0.008584208079380276      612.9239381968576
0.008860770503195153      611.7597179996828
0.009120302815147717      610.6671884507921
0.00937927853441616       609.6167307395242
0.009637919714987194      608.6083448658792
0.009896449272866283      607.642030829857
0.010155090412673047      606.7177886314579
0.010414066050518256      605.8356182706814
0.01067359824059789       604.9955197475279
0.010917512776055054      604.2304579887107
0.011160965100129169      603.517605387722
0.011404139717480647      602.8569619445614
0.01164722176512739       602.2485276592291
0.011890396591516505      601.6923025317255
0.012133849333188814      601.1882865620498
0.012377764493855997      600.7364797502026
0.01258968694000722       600.387102776487
0.012801305803204788      600.0792283182665
0.013012742322906452      599.8128563755405
0.013224118052332232      599.5879869483094
0.01343555464954572       599.4046200365736
0.013647173667633327      599.2627556403323
0.013859096345786744      599.1623937595862
0.014071014760598048      599.1205445099376
0.014282630734729056      599.1193610763883
0.01449406533504172       599.1588434589378
0.014705439940049088      599.2389916575867
0.014916876031588231      599.3598056723348
0.015128494985605482      599.5212855031817
0.015340417863851432      599.723431150128
0.01558433217214941       599.9744589705031
0.015827782962260412      600.2852678168489
0.016070955302232025      600.6558576891651
0.016314034896104664      601.0862285874522
0.0165572076604014        601.5763805117102
0.01680065929819124       602.1263134619384
0.01704457487559009       602.7360274381375
0.01730410703726679       603.4013421756208
0.017563082646895985      604.1075551169682
0.01782172375860034       604.8546662621798
0.018080253288416847      605.6426756112555
0.01833889444089119       606.4715831641957
0.018597870131955005      607.341388921
0.018857402415521692      608.2520928816684
0.019133964837753384      609.2304949372711
0.019409855277906563      610.2275737034362
0.019685341795980367      611.2433291801633
0.019960693631652874      612.2777613674529
0.0202361804194872        613.330870265305
0.020512071398371242      614.4026558737188
0.020788634626735362      615.4931181926952
0.02106519785666259       616.5601446998712
0.021341088837091095      617.6150418689974
0.021616575626458134      618.6578097000736
0.02189192746365859       619.6884481931002
0.022167413983262562      620.7069573480771
0.02244330442495508       621.713337165004
0.022719866848742224      622.7075876438811
0.022979399160698737      623.5419298769157
0.023238374879971102      624.3537563807312
0.023497016060546046      625.1430671553273
0.023755545618429033      625.9098622007044
0.02401418675823971       626.6541415168628
0.024273162396088833      627.3759051038013
0.024532694586172417      628.075152961521
0.02477660912165014       628.6549457998577
0.02502006144574469       629.2009325423147
0.025263236063116538      629.713113188892
0.025506318110783622      630.1914877395893
0.025749492937193107      630.6360561944074
0.02599294567888585       631.0468185533454
0.026236860839573585      631.4237748164037
0.026448783285734738      631.6961632929558
0.02666040214894219       631.9503252059657
0.026871838668653707      632.1862605554333
0.027083214398089334      632.4039693413587
0.027294650995312687      632.6034515637422
0.027506270013410168      632.7847072225832
0.02771819269157351       632.9477363178821
0.02793011110637494       633.0188355234483
0.028141727080496122      633.0704522778879
0.028353161680798985      633.1025865812006
0.028564536285796558      633.1152384333868
0.028775972377325904      633.1084078344469
0.028987591331333325      633.0820947843799
0.029199514209569403      633.0362992831865
0.02944342851784522       632.8519873769063
0.02968687930793418       632.6248345657053
0.02993005164788383       632.3548408495836
0.030173131241734534      632.0420062285416
0.0304163040060093        631.6863307025789
0.0306597556437771        631.2878142716953
0.030903671221153783      630.8464569358912
0.031163203382828072      630.2162137601413
0.03142217899245488       629.5403692564722
0.03168082010415685       628.8189234248839
0.03193934963397098       628.0518762653767
0.032197990786442934      627.2392277779504
0.03245696647750436       626.3809779626048
0.032716498761068635      625.4771268193402
0.03299306118333142       624.3394434710601
0.03326895162351545       623.1803219419043
0.03354443814161999       621.9997622318728
0.03381978997732317       620.7977643409657
0.034095276765188226      619.5743282691833
0.03437116774410313       618.329454016525
0.03464773097249833       617.0631415829912
0.034924294202460265      615.7277907514643
0.03520018518292322       614.4126165776566
0.03547567197232456       613.1176190615676
0.035751023809559274      611.8427982031972
0.036026510329197556      610.588154002546
0.036302400770924524      609.3536864596134
0.03657896319474637       608.1393955743997
0.036838495506703706      606.9990671846843
0.03709747122597688       605.9119634236039
0.037356112406552636      604.8780842911582
0.03761464196443644       603.8974297873475
0.03787328310424792       602.969999912172
0.03813225874209787       602.0957946656313
0.03839179093218227       601.2748140477255
0.03863570546763781       600.5316076567414
0.038879157791710306      599.853286998576
0.03912233240906017       599.2398520732296
0.03936541445670531       598.6913028807018
0.039608589283092806      598.207639420993
0.039852042024763494      597.7888616941027
0.04009595718542905       597.4349697000314
0.040307879631580334      597.1629713306891
0.04051949849477797       596.9426691937059
0.0407309350144797        596.7740632890818
0.040942310743905544      596.657153616817
0.04115374734111909       596.5919401769117
0.04136536635920676       596.5784229693653
0.04157728903736024       596.6166019941784
0.04178920745215007       596.7129778516846
0.042000823426259694      596.8595176838257
0.042212258026551035      597.0562214906015
0.04242363263153709       597.3030892720124
0.0426350687230549        597.6001210280583
0.042846687677050764      597.9473167587387
0.04305861055527523       598.3446764640543
0.04330252486354604       598.8285506223575
0.043545975653630026      599.3808571954942
0.04378914799357473       600.0015961834638
0.044032227587420474      600.6907675862666
0.04427540035169028       601.4483714039027
0.04451885198945311       602.2744076363716
0.044762767566824783      603.168876283674
0.045022299728516735      604.1507047346496
0.04528127533816108       605.1793947056184
0.045539916449880535      606.2549461965802
0.045798445979712124      607.3773592075353
0.046057087132201545      608.5466337384837
0.04631606282328052       609.7627697894251
0.046575595106862454      611.0257673603597
0.04685215752913061       612.3732971756909
0.04712804796931999       613.7440615432871
0.04740353448742985       615.1380604631482
0.04767888632313835       616.5552939352744
0.04795437311100872       617.9957619596662
0.048230264089928976      619.4594645363225
0.048506827318329566      620.9464016652441
0.04878339054829114       622.3615117964666
0.049059281528753745      623.7559469144359
0.04933476831815475       625.1297070191516
0.0496101201553891        626.482792110614
0.04988560667502701       627.8152021888233
0.05016149711675364       629.1269372537789
0.050438059540575134      630.4179973054813
0.05069759185254397       631.4582880102771
0.05095656757182859       632.4518982430678
0.05121520875241573       633.3988280038533
0.05147373831031092       634.2990772926338
0.051732379450133786      635.1526461094097
0.05199135508799517       635.9595344541801
0.05225088727809108       636.7197423269456
0.0524948018135407        637.313344162215
0.052738254137607306      637.8477128334636
0.05298142875495131       638.3228483406913
0.05322451080259058       638.738750683898
0.0534676856289722        639.0954198630843
0.05371113837063701       639.3928558782494
0.05395505353129665       639.6310587293938
0.05416697597743634       639.7692924168475
0.054378594840622414      639.8655046887745
0.05459003136031263       639.9196955451744
0.05480140708972696       639.9318649860473
0.05501284368692898       639.9020130113939
0.0552244627050051        639.830139621213
0.05543638538314697       639.7162448155054
