% Model:              brazing.mph
% Version:            COMSOL 5.3.0.223
% Date:               Oct 20 2018, 01:33
% Dimension:          1
% Nodes:              225
% Expressions:        1
% Description:        Line graph
% x                       Height
0                         644.1527820794327
2.1191841480136804E-4     644.0640001544169
4.2353438892247565E-4     643.9346965428832
6.349689892252786E-4      643.7648712448315
8.463435942227858E-4      643.5545242602618
0.001057779685752053      643.3036555891744
0.001269398639759412      643.0122652315687
0.001481321517995422      642.6803531874452
0.0017252358262731596     642.2363113487805
0.0019686866163640313     641.7606435599201
0.0022118589563155885     641.2533498208638
0.002454938550168189      640.7144301316117
0.0026981113144448556     640.143884492164
0.0029415629522145732     639.5417129025201
0.0031854785295931678     638.9079153626806
0.0034450106912723537     638.1224445722506
0.0037039863009040125     637.3043995821145
0.003962627412610827      636.4537803922723
0.0042211569424298        635.570587002724
0.004479798094906585      634.6548194134699
0.004738773785972872      633.7064776245096
0.004998306069542035      632.7255616358433
0.005274868491808245      631.5744465587564
0.005550758931995686      630.4056552867773
0.0058262454501036105     629.2191878199061
0.006101597285810183      628.0150441581427
0.006377084073678616      626.7932243014875
0.006652975052596927      625.5537282499399
0.006929538280995558      624.2965560035003
0.007206101510950518      622.9932516750022
0.007481992491406557      621.7087162338842
0.007757479280801014      620.4429496801462
0.00803283111802884       619.1959520137884
0.008308317637660222      617.9677232348108
0.008584208079380276      616.7582633432132
0.008860770503195153      615.5675723389959
0.009120302815147717      614.4496705477278
0.00937927853441616       613.3753413804224
0.009637919714987194      612.3445848370797
0.009896449272866283      611.3574009176997
0.010155090412673047      610.4137896222827
0.010414066050518256      609.5137509508281
0.01067359824059789       608.6572849033365
0.010917512776055054      607.8774235391438
0.011160965100129169      607.1515574050641
0.011404139717480647      606.4796865010974
0.01164722176512739       605.8618108272436
0.011890396591516505      605.297930383503
0.012133849333188814      604.7880451698751
0.012377764493855997      604.3321551863604
0.01258968694000722       603.9811175059288
0.012801305803204788      603.6727660759609
0.013012742322906452      603.4071008964564
0.013224118052332232      603.1841219674155
0.01343555464954572       603.0038292888387
0.013647173667633327      602.8662228607249
0.013859096345786744      602.771302683075
0.014071014760598048      602.737837285052
0.014282630734729056      602.7461701678928
0.01449406533504172       602.7963013315972
0.014705439940049088      602.8882307761652
0.014916876031588231      603.021958501597
0.015128494985605482      603.1974845078922
0.015340417863851432      603.4148087950512
0.01558433217214941       603.6833472416423
0.015827782962260412      604.0136845916991
0.016070955302232025      604.405820845221
0.016314034896104664      604.8597560022085
0.0165572076604014        605.3754900626617
0.01680065929819124       605.95302302658
0.01704457487559009       606.5923548939639
0.01730410703726679       607.2892669210394
0.017563082646895985      608.0281473952016
0.01782172375860034       608.8089963164506
0.018080253288416847      609.6318136847868
0.01833889444089119       610.49659950021
0.018597870131955005      611.4033537627197
0.018857402415521692      612.3520764723166
0.019133964837753384      613.3704858547877
0.019409855277906563      614.4079242050311
0.019685341795980367      615.4643915230469
0.019960693631652874      616.5398878088348
0.0202361804194872        617.6344130623955
0.020512071398371242      618.7479672837281
0.020788634626735362      619.8805504728333
0.02106519785666259       620.9877768084299
0.021341088837091095      622.0822427655978
0.021616575626458134      623.1639483443372
0.02189192746365859       624.2328935446478
0.022167413983262562      625.28907836653
0.02244330442495508       626.3325028099833
0.022719866848742224      627.3631668750082
0.022979399160698737      628.2250404949428
0.023238374879971102      629.06375213765
0.023497016060546046      629.8793018031298
0.023755545618429033      630.6716894913823
0.02401418675823971       631.4409152024078
0.024273162396088833      632.1869789362057
0.024532694586172417      632.9098806927765
0.02477660912165014       633.5069802275906
0.02502006144574469       634.0689758986232
0.025263236063116538      634.5958677058742
0.025506318110783622      635.0876556493438
0.025749492937193107      635.5443397290322
0.02599294567888585       635.965919944939
0.026236860839573585      636.3523962970643
0.026448783285734738      636.6300717268466
0.02666040214894219       636.8894234058672
0.026871838668653707      637.130451334126
0.027083214398089334      637.3531555116231
0.027294650995312687      637.5575359383587
0.027506270013410168      637.7435926143321
0.02771819269157351       637.911325539544
0.02793011110637494       637.9811428551441
0.028141727080496122      638.0314032990716
0.028353161680798985      638.0621068713265
0.028564536285796558      638.0732535719086
0.028775972377325904      638.0648434008185
0.028987591331333325      638.0368763580555
0.029199514209569403      637.98935244362
0.02944342851784522       637.7969869610025
0.02968687930793418       637.5601546140124
0.02993005164788383       637.2788554026496
0.030173131241734534      636.9530893269142
0.0304163040060093        636.5828563868065
0.0306597556437771        636.1681565823259
0.030903671221153783      635.7089899134728
0.031163203382828072      635.0512202799589
0.03142217899245488       634.3462342671145
0.03168082010415685       633.5940318749394
0.03193934963397098       632.794613103434
0.032197990786442934      631.9479779525984
0.03245696647750436       631.054126422432
0.032716498761068635      630.1130585129353
0.03299306118333142       628.9263926682827
0.03326895162351545       627.7174963860167
0.03354443814161999       626.4863696661371
0.03381978997732317       625.233012508644
0.034095276765188226      623.9574249135378
0.03437116774410313       622.6596068808177
0.03464773097249833       621.3395584104843
0.034924294202460265      619.9462503046005
0.03520018518292322       618.5739269449421
0.03547567197232456       617.2225883315089
0.035751023809559274      615.8922344643013
0.036026510329197556      614.5828653433191
0.036302400770924524      613.2944809685621
0.03657896319474637       612.0270813400306
0.036838495506703706      610.8361918838277
0.03709747122597688       609.7004327510923
0.037356112406552636      608.6198039418242
0.03761464196443644       607.5943054560237
0.03787328310424792       606.6239372936907
0.03813225874209787       605.7086994548248
0.03839179093218227       604.8485919394265
0.03863570546763781       604.0692461239984
0.038879157791710306      603.3571033671998
0.03912233240906017       602.7121636690304
0.03936541445670531       602.1344270294904
0.039608589283092806      601.62389344858
0.039852042024763494      601.1805629262986
0.04009595718542905       600.8044354626469
0.040307879631580334      600.5143205878421
0.04051949849477797       600.277618270305
0.0407309350144797        600.0943285100352
0.040942310743905544      599.9644513070328
0.04115374734111909       599.8879866612982
0.04136536635920676       599.8649345728306
0.04157728903736024       599.8952950416308
0.04178920745215007       599.9863454063151
0.042000823426259694      600.129253732453
0.042212258026551035      600.3240200200447
0.04242363263153709       600.5706442690904
0.0426350687230549        600.8691264795899
0.042846687677050764      601.2194666515431
0.04305861055527523       601.6216647849502
0.04330252486354604       602.1112692568955
0.043545975653630026      602.6720136961056
0.04378914799357473       603.3038981025803
0.044032227587420474      604.0069224763199
0.04427540035169028       604.7810868173245
0.04451885198945311       605.6263911255935
0.044762767566824783      606.5428354011275
0.045022299728516735      607.5490638607704
0.04528127533816108       608.6038883548231
0.045539916449880535      609.7073088832852
0.045798445979712124      610.859325446157
0.046057087132201545      612.0599380434387
0.04631606282328052       613.3091466751296
0.046575595106862454      614.6069513412302
0.04685215752913061       615.9919488307034
0.04712804796931999       617.4014346661687
0.04740353448742985       618.8354088476258
0.04767888632313835       620.2938713750751
0.04795437311100872       621.7768222485166
0.048230264089928976      623.2842614679497
0.048506827318329566      624.8161890333752
0.04878339054829114       626.273981474507
0.049059281528753745      627.7109061480908
0.04933476831815475       629.1269630541262
0.0496101201553891        630.5221521926136
0.04988560667502701       631.8964735635532
0.05016149711675364       633.2499271669441
0.050438059540575134      634.5825130027872
0.05069759185254397       635.65313383613
0.05095656757182859       636.6760286745621
0.05121520875241573       637.6511975180831
0.05147373831031092       638.5786403666933
0.051732379450133786      639.4583572203929
0.05199135508799517       640.2903480791813
0.05225088727809108       641.0746129430589
0.0524948018135407        641.6851954634459
0.052738254137607306      642.2347880589008
0.05298142875495131       642.7233907294236
0.05322451080259058       643.1510034750147
0.0534676856289722        643.517626295674
0.05371113837063701       643.823259191401
0.05395505353129665       644.0679021621963
0.05416697597743634       644.2088813382946
0.054378594840622414      644.3069093565143
0.05459003136031263       644.3619862168553
0.05480140708972696       644.3741119193176
0.05501284368692898       644.3432864639014
0.0552244627050051        644.2695098506063
0.05543638538314697       644.1527820794327
