% Model:              brazing.mph
% Version:            COMSOL 5.3.0.223
% Date:               Oct 20 2018, 02:03
% Dimension:          1
% Nodes:              161
% Expressions:        1
% Description:        Line graph
% x                       Height
0                         630.3342204782574
1.9693985890610136E-4     630.2922175010768
3.9298030043864816E-4     630.2629959531534
5.884188308682271E-4      630.2465558344871
7.835557095112735E-4      630.2428971450778
9.786925881542028E-4      630.2520198849255
0.0011741311185834375     630.2739240540304
0.0013701715601154056     630.3086096523923
0.0015671114190207022     630.3560766800113
0.0017642608961497635     630.1201224585096
0.0019605081241513326     629.8801740310573
0.0021561515411346144     629.6362313976543
0.002351492352702621      629.3882945583007
0.0025468331642698894     629.1363635129964
0.0027424765812509564     628.8804382617415
0.0029387238092488436     628.6205188045358
0.0031358732863727766     628.3566051413795
0.0033326885608882563     627.9958981786028
0.0035286060983021257     627.6392298316963
0.0037239228519497995     627.2866001006598
0.003918938519653848      626.9380089854936
0.004113954187357973      626.5934564861976
0.004309270941005876      626.2529426027719
0.004505188478420127      625.9164673352162
0.004702003752936137      625.5840306835308
0.004899138702461749      625.2442125818811
0.005095371599302965      624.9198176253204
0.005291000816927052      624.6108458138488
0.005486327495291825      624.3172971474661
0.005681654173656831      624.0391716261723
0.0058772833912816074     623.7764692499676
0.0060735162881239745     623.5291900188519
0.006270651237651189      623.2973339328252
0.006467582778148322      623.1257834504968
0.006663615013526554      622.9863354632326
0.006859045413116663      622.8789899710323
0.0070541741987231454     622.8037469738962
0.007249302984329781      622.760606471824
0.007444733383920351      622.7495684648158
0.007640765619299351      622.7706329528717
0.007837697159797551      622.8237999359915
0.008034634474091872      622.8158060470047
0.008230672405352359      622.8443589069975
0.008426108448549354      622.9094585159698
0.008621242851524007      623.0111048739217
0.008816377254498534      623.149297980853
0.009011813297695145      623.324037836764
0.009207851228955002      623.5353244416544
0.00940478854324844       623.7831577955244
0.00960192671152544       624.0962966078907
0.00979816278359587       624.4233150228905
0.009993795147248338      624.764213040524
0.010189124956984269      625.1189906607912
0.010384454766719743      625.4876478836919
0.010580087130370853      625.8701847092262
0.010776323202439026      626.2666011373942
0.01097346137071288       626.6768971681958
0.011170281912174305      627.0470148430256
0.011366204645540166      627.4264139710574
0.011561526547508357      627.815094552291
0.011756547339625332      628.2130565867265
0.011951568131742307      628.6203000743637
0.0121468900337105        629.0368250152029
0.012342812767076368      629.462631409244
0.0125396333085378        629.8977192564869
0.012736771215691979      630.1835830658762
0.012933007030171178      630.4674981230486
0.013128639138602195      630.749464428004
0.013323968694306592      631.0294819807425
0.013519298250011432      631.3075507812641
0.013714930358443784      631.5836708295687
0.0139111661729252        631.8578421256564
0.014108304080082462      632.1300646695271
0.014305241249097643      632.1223485832918
0.014501279037039759      632.1192008811284
0.014696714938233999      632.1206215630368
0.014891849199866372      632.1266106290173
0.015086983461498874      632.1371680790695
0.015282419362693495      632.1522939131936
0.01547845715063625       632.1719881313895
0.015675394319652317      632.1962507336574
0.015872325504405583      631.8205781673033
0.01606835738884011       631.4518162736881
0.016263787440706973      631.0899650528121
0.016458915880206496      630.735024504675
0.016654044319705866      630.3869946292771
0.016849474371572262      630.0458754266181
0.017045506256006017      629.7116668966981
0.017242437440758204      629.3843690395172
0.01743957168037589       628.8307185749928
0.017635803876907424      628.2674752662848
0.01783143240066149       627.6946391133928
0.018026758388388308      627.1122101163171
0.01822208437611492       626.5201882750576
0.01841771289986836       625.9185735896143
0.018613945096398854      625.3073660599873
0.018811079336015085      624.6865656861766
0.019007894687321662      624.0349192137462
0.01920381230049143       623.3846245184187
0.019399129129200405      622.7356816001941
0.01959414487161704       622.0880904590723
0.01978916061403359       621.4418510950535
0.01998447744274231       620.7969635081377
0.020180395055911654      620.1534276983245
0.020377210407217645      619.5112436656144
0.020574360469106157      618.939879212221
0.020770608273960874      618.3881411593161
0.020966252262493188      617.8560295068996
0.021161593642948652      617.3435442549718
0.021356935023404883      616.8506854035325
0.021552579011939476      616.3774529525816
0.021748826816797996      615.9238469021193
0.021945976878691802      615.4898672521456
0.022142917141692885      615.1653323473885
0.022338957981867254      614.8832770323398
0.022534396907280062      614.6437013069994
0.02272953417907009       614.4466051713674
0.02292467145086023       614.2919886254437
0.02312011037627338       614.1798516692282
0.02331615121644832       614.1101943027211
0.023513091479450195      614.0830165259223
0.023710025135207962      614.013486774467
0.02390605945730262       613.9920173914785
0.024101491924457957      614.0186083769571
0.024296622768016963      614.0932597309026
0.024491753611575823      614.215971453315
0.02468718607873073       614.3867435441942
0.024883220400824673      614.6055760035407
0.025080154056581445      614.8724688313539
0.025277299572591536      615.2550445319596
0.025473542893039384      615.6576363340063
0.02566918243840792       616.0802442374941
0.025864519396400307      616.5228682424228
0.026059856354392216      616.9855083487925
0.026255495899759323      617.4681645566033
0.026451739220204794      617.970836865855
0.026648884736211575      618.4935252765476
0.02684569473774919       619.0696405202099
0.027041607073256636      619.650611334301
0.027236918672681274      620.2364377188208
0.027431929210095855      620.8271196737693
0.027626939747510428      621.4226571991467
0.027822251346935042      622.0230502949528
0.028018163682442445      622.6282989611877
0.028214973683980002      623.2384031978515
0.028412120943583204      623.8255857752171
0.028608365984047285      624.4011218212023
0.02880400723361381       624.965011335807
0.02899934588786498       625.5172543190313
0.02919468454211669       626.0578507708751
0.029390325791684838      626.5868006913387
0.02958657083215161       627.1041040804216
0.029783718091758563      627.6097609381242
0.029980652759780888      627.945209889673
0.030176688080480362      628.2821184100698
0.030372121537075924      628.6204864993144
0.03056725336547531       628.9603141574071
0.030762385193874833      629.3016013843477
0.030957818650470807      629.6443481801364
0.031153853971170976      629.9885545447729
0.031350788639194264      630.3342204782574
