% Model:              brazing.mph
% Version:            COMSOL 5.3.0.223
% Date:               Oct 20 2018, 02:27
% Dimension:          1
% Nodes:              225
% Expressions:        1
% Description:        Line graph
% x                       Height
0                         621.2753892849424
2.02242572596226E-4       621.265434388093
4.040113375593453E-4      621.1984370514773
6.054635867748898E-4      621.0743972750956
8.067573541103817E-4      620.8933150589478
0.0010080510467017985     620.6551904030338
0.001209503071861434      620.3600233073536
0.0014112714639836859     620.0078137719074
0.001613513515825394      619.598561796695
0.001815803045808458      619.2221717022596
0.0020176184164428694     618.8037239091466
0.0022191170764546647     618.343218417356
0.0024204572175778446     617.8406552268876
0.00262179740518867       617.2960343377417
0.002823296204553664      616.7093557499182
0.0030251118070788686     616.0806194634171
0.003227401660948015      615.4098254782383
0.0034297372965816655     614.756291540237
0.003631598594156443      614.0698595702163
0.0038331430353414214     613.3505295681758
0.004034528845142556      612.5983015341159
0.004235914622467191      611.8131754680363
0.004437458966299354      610.9951513699372
0.004639320101874085      610.1442292398184
0.004841655511239337      609.2604090776799
0.005043918276497792      608.438885738793
0.005245706959792293      607.6073246438713
0.0054471789681153834     606.7657257929144
0.00564849245128538       605.9140891859228
0.005849805932728159      605.0524148228961
0.006051277935873691      604.1807027038345
0.00625306661055245       603.2989528287382
0.006455329363777148      602.4071651976067
0.0066576887471433525     601.5422705648631
0.0068595736811967985     600.6943079392864
0.007061141707903535      599.8632773208767
0.007262551112883539      599.0491787096339
0.007463960555734714      598.2520121055582
0.007665528695965537      597.4717775086492
0.00786741381892875       596.7084749189074
0.0080697734661485        595.9621043363323
0.008272395437950266      595.2846890492848
0.008474540847339949      594.630080050414
0.008676367906616744      593.9982773397204
0.008878035577337231      593.3892809172036
0.009079703197965442      592.8030907828637
0.009281530107084053      592.2397069367008
0.00948367526660416       591.6991293787148
0.009686296889411194      591.1813581089057
0.009888748367913874      590.8346963621638
0.010090724718905934      590.5245519517877
0.010292383720552634      590.2509248777774
0.010493883896490891      590.0138151401327
0.010695384145210549      589.8132227388538
0.010897043365029401      589.6491476739408
0.011099020079070253      589.5215899453937
0.011301472064648224      589.4305495532121
0.011503924099142101      589.4291005568116
0.011705900863193036      589.4651353130188
0.011907560133099505      589.5386538218335
0.012109060430962503      589.6496560832559
0.012310560654077738      589.7981420972859
0.012512219699917606      589.9841118639237
0.012714196091111104      590.207565383169
0.012916647604829811      590.4685026550221
0.013119269382981878      590.8563326060855
0.013321414683399362      591.2739333158493
0.013523241722808088      591.7213047843134
0.013724909467002238      592.1984470114777
0.013926577258472442      592.7053599973424
0.014128404439597363      593.2420437419074
0.014330549975836581      593.8084982451727
0.01453317208336263       594.4047235071383
0.014735531766219815      595.0606743175164
0.014937416940401616      595.7295178699337
0.015138985143475461      596.4112541643905
0.015340394656791169      597.1058832008866
0.015541804135826716      597.8134049794222
0.015743372236141022      598.5338194999971
0.015945257239325793      599.2671267626115
0.01614761668334845       600.0133267672651
0.01634987940592303       600.8510829031882
0.016551668047823844      601.6781101204214
0.016753140015983766      602.4944084189648
0.0169544534601584        603.2999777988183
0.017155766903708087      604.094818259982
0.017357238869994664      604.878929802456
0.017559027508778132      605.6523124262402
0.01776129022699866       606.4149661313345
0.017963625484858744      607.2031942481857
0.018165486461237414      607.968652606468
0.018367030641941378      608.7113412061814
0.018568416255992027      609.4312600473258
0.018769801906169285      610.1284091299015
0.018971346195167795      610.8027884539081
0.019173207351754082      611.4543980193458
0.019375542861313405      612.0832378262147
0.019577832661189145      612.7276706719404
0.019779648217873542      613.3258785573789
0.019981146975907166      613.8778614825304
0.020182487123025287      614.383619447395
0.020383827220813066      614.8431524519724
0.020585325830972126      615.2564604962628
0.020787141141585735      615.623543580266
0.020989430597769934      615.9444017039823
0.021191672662378012      616.3453863047451
0.021393441061935803      616.6893543920211
0.02159489309031221       616.9763059658102
0.021796186783028852      617.2062410261124
0.021997480548535182      617.3791595729276
0.022198932795108938      617.4950616062562
0.022400701557758636      617.5539471260977
0.02260294412950465       617.5558161324524
0.02280539620920995       617.5983746661883
0.023007373018156245      617.581771126014
0.02320903233274668       617.5060055119295
0.023410532675187733      617.3710778239349
0.023612032942881025      617.1769880620302
0.023813692033404853      616.9237362262153
0.024015668469493705      616.6113223164903
0.024218120028423832      616.239746332855
0.024420742013481003      615.8768535292965
0.02462288751935683       615.4655062890931
0.02482471476325633       615.0057046122449
0.02502638271145666       614.4974484987519
0.025228050706933344      613.9407379486139
0.025429878092549915      613.3355729618311
0.025632023834248962      612.6819535384034
0.025834646148682177      611.9798796783309
0.026037006051731277      611.2719585721732
0.026238891444565628      610.5279265160381
0.02644045986526205       609.7477835099255
0.026641869595683754      608.9315295538355
0.02684327929182417       608.0791646477682
0.027044847609757647      607.1906887917232
0.02724673283158932       606.2661019857011
0.027449092495796006      605.3054042297015
0.02765135518998453       604.3593717155609
0.027853143803698084      603.4063441581961
0.028054615743803996      602.4463215576073
0.028255929159991804      601.4793039137943
0.028457242575555555      600.5052912267571
0.028658714513790734      599.5242834964959
0.028860503124391312      598.5362807230102
0.029062765814231884      597.5412829063006
0.029265100752448706      596.5518082872397
0.02946696141141544       595.585967579009
0.029668505276199596      594.6437607816082
0.029869890575077548      593.7251878950376
0.03007127591008127       592.8302489192971
0.030272819883157453      591.9589438543866
0.03047468072232762       591.1112727003061
0.030677015912237836      590.2872354570558
0.030879305594778746      589.5285183772494
0.03108112103494649       588.8057151643533
0.031282619677010744      588.1188258183673
0.03148395970843373       587.4678503392917
0.0316852996905265        586.8527887271262
0.031886798184716555      586.2736409818708
0.032088613378814135      585.7304071035257
0.03229090271766436       585.223087092091
0.03249314477533616       584.8711806005463
0.03269491316800606       584.5706634312565
0.03289636518952694       584.3215355842217
0.03309765887540427       584.1237970594417
0.033298952634071295      583.9774478569166
0.033500404873789524      583.8824879766464
0.03370217362955133       583.8389174186311
0.03390441619436107       583.8467361828706
0.03410686840969767       583.9461724717906
0.03430884535332711       584.0971992998378
0.0345105048019665        584.2998166670121
0.034712005278138794      584.5540245733134
0.03491350567956333       584.8598230187418
0.03511516490413611       585.2172120032974
0.035317141474908095      585.6261915269799
0.03551959316946952       586.0867615897896
0.035722216260139425      586.6693993633729
0.03592436286389621       587.2914794098782
0.036126191200505704      587.9530017293055
0.03632786023882611       588.6539663216547
0.03652952932442421       589.3943731869259
0.036731357802754806      590.1742223251191
0.03693350464234149       590.9935137362341
0.03713612806239678       591.8522474202712
0.03733848789969145       592.7639717897459
0.037540373227224554      593.6952689110008
0.03774194158292153       594.6461387840357
0.03794335124849304       595.6165814088506
0.03814476087977932       596.6065967854457
0.03834632913270157       597.6161849138207
0.03854821428921239       598.6453457939759
0.038750573887637245      599.6940794259111
0.03895283596123875       600.7942944828346
0.039154623958694366      601.882867705926
0.039356095285438375      602.9597990951852
0.03955740808971597       604.0250886506121
0.03975872089337115       605.0787363722069
0.03996019221824938       606.1207422599696
0.04016198021260023       607.1511063139002
0.04036424228186526       608.1698285339985
0.040566577948397485      609.1762681032666
0.040768439330593605      610.1503560466009
0.04096998391520435       611.0920923640014
0.04117136993220262       612.0014770554683
0.04137275598532357       612.8785101210015
0.04157430067821714       613.7231915606008
0.04177616224060133       614.5355213742665
0.0419784981588055        615.3154995619984
0.04218078754816035       616.0763395494396
0.04238260269718259       616.7807545511395
0.04258410104946696       617.4287445670979
0.04278544079179545       618.0203095973151
0.04298678048479618       618.555449641791
0.043188278689213704      619.0341647005254
0.043390093592177985      619.4564547735187
0.04359238263785921       619.8223198607706
0.043794623705544454      620.2217379636863
0.04399639111513442       620.5589319452039
0.04419784215819482       620.8339018053229
0.04439913486792596       621.0466475440436
0.044600427650446826      621.1971691613659
0.04480187891170468       621.2854666572898
0.045003646684386715      621.3115400318153
0.04520588825921017       621.2753892849424
