% Model:              brazing.mph
% Version:            COMSOL 5.3.0.223
% Date:               Oct 20 2018, 02:40
% Dimension:          1
% Nodes:              225
% Expressions:        1
% Description:        Line graph
% x                       Height
0                         660.4614579733545
2.02242572596226E-4       660.4559045099496
4.040113375593453E-4      660.3899184793613
6.054635867748898E-4      660.2634998815894
8.067573541103817E-4      660.076648716634
0.0010080510467017985     659.8293649844952
0.001209503071861434      659.5216486851729
0.0014112714639836859     659.1534998186672
0.001613513515825394      658.724918384978
0.001815803045808458      658.3352038675716
0.0020176184164428694     657.9009433055463
0.0022191170764546647     657.4221366989019
0.0024204572175778446     656.8987840476385
0.00262179740518867       656.330885351756
0.002823296204553664      655.7184406112546
0.0030251118070788686     655.0614498261341
0.003227401660948015      654.3599129963947
0.0034297372965816655     653.6748737431308
0.003631598594156443      652.954920204888
0.0038331430353414214     652.2000523816663
0.004034528845142556      651.4102702734655
0.004235914622467191      650.5855738802858
0.004437458966299354      649.7259632021272
0.004639320101874085      648.8314382389896
0.004841655511239337      647.901998990873
0.005043918276497792      647.0450522030496
0.005245706959792293      646.1772432358949
0.0054471789681153834     645.2985720894088
0.00564849245128538       644.4090387635915
0.005849805932728159      643.5086432584429
0.006051277935873691      642.5973855739629
0.00625306661055245       641.6752657101518
0.006455329363777148      640.7422836670094
0.0066576887471433525     639.8373682843677
0.0068595736811967985     638.9506598149751
0.007061141707903535      638.0821582588318
0.007262551112883539      637.2318636159378
0.007463960555734714      636.3997758862928
0.007665528695965537      635.5858950698972
0.00786741381892875       634.7902211667506
0.0080697734661485        634.0127541768534
0.008272395437950266      633.3095583326862
0.008474540847339949      632.6300056896454
0.008676367906616744      631.974096247731
0.008878035577337231      631.3418300069433
0.009079703197965442      630.7332069672818
0.009281530107084053      630.1482271287471
0.00948367526660416       629.5868904913386
0.009686296889411194      629.0491970550568
0.009888748367913874      628.6991914826967
0.010090724718905934      628.3872720972902
0.010292383720552634      628.113438898837
0.010493883896490891      627.8776918873372
0.010695384145210549      627.6800310627908
0.010897043365029401      627.5204564251977
0.011099020079070253      627.3989679745583
0.011301472064648224      627.3155657108721
0.011503924099142101      627.3283755497165
0.011705900863193036      627.3802501502732
0.011907560133099505      627.4711895125422
0.012109060430962503      627.6011936365237
0.012310560654077738      627.7702625222175
0.012512219699917606      627.9783961696237
0.012714196091111104      628.2255945787423
0.012916647604829811      628.5118577495731
0.013119269382981878      628.9368513634176
0.013321414683399362      629.3928739951452
0.013523241722808088      629.8799256447558
0.013724909467002238      630.3980063122493
0.013926577258472442      630.9471159976259
0.014128404439597363      631.5272547008856
0.014330549975836581      632.1384224220283
0.01453317208336263       632.7806191610539
0.014735531766219815      633.4868180329419
0.014937416940401616      634.2058843390452
0.015138985143475461      634.9378180793634
0.015340394656791169      635.6826192538971
0.015541804135826716      636.440287862646
0.015743372236141022      637.2108239056099
0.015945257239325793      637.9942273827892
0.01614761668334845       638.7904982941836
0.01634987940592303       639.6897314340642
0.016551668047823844      640.5770344545642
0.016753140015983766      641.4524073556835
0.0169544534601584        642.3158501374219
0.017155766903708087      643.1673627997795
0.017357238869994664      644.0069453427567
0.017559027508778132      644.8345977663528
0.01776129022699866       645.6503200705683
0.017963625484858744      646.4907061437208
0.018165486461237414      647.3068800158984
0.018367030641941378      648.0988416871013
0.018568416255992027      648.8665911573295
0.018769801906169285      649.610128426583
0.018971346195167795      650.3294534948615
0.019173207351754082      651.0245663621655
0.019375542861313405      651.6954670284946
0.019577832661189145      652.3801250597407
0.019779648217873542      653.0151351696667
0.019981146975907166      653.6004973582723
0.020182487123025287      654.1362116255574
0.020383827220813066      654.6222779715223
0.020585325830972126      655.0586963961669
0.020787141141585735      655.4454668994912
0.020989430597769934      655.782589481495
0.021191672662378012      656.2066277989987
0.021393441061935803      656.5697448990579
0.02159489309031221       656.8719407816726
0.021796186783028852      657.1132154468428
0.021997480548535182      657.2935688945685
0.022198932795108938      657.4130011248496
0.022400701557758636      657.4715121376863
0.02260294412950465       657.4691019330785
0.02280539620920995       657.5057297654245
0.023007373018156245      657.4791330928686
0.02320903233274668       657.3893119154108
0.023410532675187733      657.2362662330511
0.023612032942881025      657.0199960457895
0.023813692033404853      656.7405013536262
0.024015668469493705      656.3977821565608
0.024218120028423832      655.9918384545937
0.024420742013481003      655.5994697130917
0.02462288751935683       655.155310243846
0.02482471476325633       654.6593600468566
0.02502638271145666       654.1116191221234
0.025228050706933344      653.5120874696465
0.025429878092549915      652.8607650894259
0.025632023834248962      652.1576519814614
0.025834646148682177      651.4027481457534
0.026037006051731277      650.6404891713938
0.026238891444565628      649.839580049439
0.02644045986526205       649.0000207798886
0.026641869595683754      648.121811362743
0.02684327929182417       647.2049517980018
0.027044847609757647      646.2494420856655
0.02724673283158932       645.2552822257337
0.027449092495796006      644.2224722182067
0.02765135518998453       643.2102786391451
0.027853143803698084      642.1901956648865
0.028054615743803996      641.1622232954307
0.028255929159991804      640.126361530778
0.028457242575555555      639.0826103709281
0.028658714513790734      638.0309698158811
0.028860503124391312      636.9714398656371
0.029062765814231884      635.9040205201959
0.029265100752448706      634.8422346736335
0.02946696141141544       633.8054764075385
0.029668505276199596      632.7937457219107
0.029869890575077548      631.8070426167502
0.03007127591008127       630.845367092057
0.030272819883157453      629.9087191478312
0.03047468072232762       628.9970987840727
0.030677015912237836      628.1105060007814
0.030879305594778746      627.2944590484694
0.03108112103494649       626.5158225344952
0.031282619677010744      625.7745964588587
0.03148395970843373       625.0707808215598
0.0316852996905265        624.4043756225986
0.031886798184716555      623.7753808619751
0.032088613378814135      623.1837965396893
0.03229090271766436       622.6296226557411
0.03249314477533616       622.2469974338649
0.03269491316800606       621.9182449859163
0.03289636518952694       621.6433653118953
0.03309765887540427       621.422358411802
0.033298952634071295      621.2552242856362
0.033500404873789524      621.1419629333982
0.03370217362955133       621.0825743550878
0.03390441619436107       621.0770585507049
0.03410686840969767       621.1705984163237
0.03430884535332711       621.3183072426237
0.0345105048019665        621.5201850296047
0.034712005278138794      621.7762317772667
0.03491350567956333       622.0864474856097
0.03511516490413611       622.4508321546339
0.035317141474908095      622.869385784339
0.03551959316946952       623.3421083747252
0.035722216260139425      623.949128518962
0.03592436286389621       624.5977291561449
0.036126191200505704      625.2879102862739
0.03632786023882611       626.0196719093492
0.03652952932442421       626.7930140253707
0.036731357802754806      627.6079366343382
0.03693350464234149       628.464439736252
0.03713612806239678       629.3625233311119
0.03733848789969145       630.318833308965
0.037540373227224554      631.2957476016791
0.03774194158292153       632.293266209254
0.03794335124849304       633.31138913169
0.03814476087977932       634.350116368987
0.03834632913270157       635.4094479211449
0.03854821428921239       636.4893837881637
0.038750573887637245      637.5899239700435
0.03895283596123875       638.7504659263572
0.039154623958694366      639.8988325817742
0.039356095285438375      641.0350239362947
0.03955740808971597       642.1590399899186
0.03975872089337115       643.2708807426459
0.03996019221824938       644.3705461944767
0.04016198021260023       645.4580363454108
0.04036424228186526       646.5333511954485
0.040566577948397485      647.5951684373116
0.040768439330593605      648.6233663311922
0.04096998391520435       649.6179448770902
0.04117136993220262       650.5789040750058
0.04137275598532357       651.5062439249388
0.04157430067821714       652.3999644268894
0.04177616224060133       653.2600655808574
0.0419784981588055        654.0865473868431
0.04218078754816035       654.8930897264266
0.04238260269718259       655.6398704988461
0.04258410104946696       656.3268897041015
0.04278544079179545       656.9541473421929
0.04298678048479618       657.5216434131202
0.043188278689213704      658.0293779168834
0.043390093592177985      658.4773508534826
0.04359238263785921       658.8655622229178
0.043794623705544454      659.295574579502
0.04399639111513442       659.6597225395778
0.04419784215819482       659.9580061031452
0.04439913486792596       660.1904252702041
0.044600427650446826      660.3569800407544
0.04480187891170468       660.4576704147963
0.045003646684386715      660.4924963923296
0.04520588825921017       660.4614579733545
