% Model:              brazing.mph
% Version:            COMSOL 5.3.0.223
% Date:               Oct 20 2018, 02:28
% Dimension:          1
% Nodes:              161
% Expressions:        1
% Description:        Line graph
% x                       Height
0                         655.9307938186363
1.9693985890610136E-4     655.90441165977
3.9298030043864816E-4     655.8878113937036
5.884188308682271E-4      655.8809930204376
7.835557095112735E-4      655.8839565399717
9.786925881542028E-4      655.896701952306
0.0011741311185834375     655.9192292574405
0.0013701715601154056     655.9515384553753
0.0015671114190207022     655.9936295461101
0.0017642608961497635     655.7544491075545
0.0019605081241513326     655.5114743015492
0.0021561515411346144     655.2647051280937
0.002351492352702621      655.0141415871886
0.0025468331642698894     654.7597836788335
0.0027424765812509564     654.5016314030286
0.0029387238092488436     654.2396847597737
0.0031358732863727766     653.9739437490689
0.0033326885608882563     653.6015878564043
0.0035286060983021257     653.2345870264618
0.0037239228519497995     652.8729412592414
0.003918938519653848      652.5166505547434
0.004113954187357973      652.1657149129675
0.004309270941005876      651.8201343339135
0.004505188478420127      651.479908817582
0.004702003752936137      651.1450383639725
0.004899138702461749      650.7928520840675
0.005095371599302965      650.4578515943048
0.005291000816927052      650.1400368946846
0.005486327495291825      649.8394079852068
0.005681654173656831      649.5559648658715
0.0058772833912816074     649.2897075366785
0.0060735162881239745     649.0406359976279
0.006270651237651189      648.8087502487198
0.006467582778148322      648.6275543103003
0.006663615013526554      648.4797902219759
0.006859045413116663      648.3654579837466
0.0070541741987231454     648.2845575956126
0.007249302984329781      648.2370890575735
0.007444733383920351      648.2230523696297
0.007640765619299351      648.242447531781
0.007837697159797551      648.2952745440273
0.008034634474091872      648.2931560117314
0.008230672405352359      648.3283463735594
0.008426108448549354      648.400845629511
0.008621242851524007      648.5106537795866
0.008816377254498534      648.657770823786
0.009011813297695145      648.8421967621092
0.009207851228955002      649.0639315945564
0.00940478854324844       649.3229753211273
0.00960192671152544       649.6377690793302
0.00979816278359587       649.9681981370612
0.009993795147248338      650.3142624943202
0.010189124956984269      650.6759621511076
0.010384454766719743      651.0532971074228
0.010580087130370853      651.4462673632664
0.010776323202439026      651.854872918638
0.01097346137071288       652.2791137735377
0.011170281912174305      652.6557128659236
0.011366204645540166      653.042431362275
0.011561526547508357      653.4392692625914
0.011756547339625332      653.8462265668733
0.011951568131742307      654.2633032751203
0.0121468900337105        654.6904993873327
0.012342812767076368      655.1278149035102
0.0125396333085378        655.575249823653
0.012736771215691979      655.8644683529388
0.012933007030171178      656.1522393164767
0.013128639138602195      656.4385627142667
0.013323968694306592      656.7234385463088
0.013519298250011432      657.006866812603
0.013714930358443784      657.2888475131492
0.0139111661729252        657.5693806479477
0.014108304080082462      657.8484662169982
0.014305241249097643      657.843318534573
0.014501279037039759      657.8405034352094
0.014696714938233999      657.8400209189075
0.014891849199866372      657.8418709856674
0.015086983461498874      657.8460536354888
0.015282419362693495      657.852568868372
0.01547845715063625       657.861416684317
0.015675394319652317      657.8725970833235
0.015872325504405583      657.4988964470335
0.01606835738884011       657.1292127530728
0.016263787440706973      656.7635460014419
0.016458915880206496      656.4018961921403
0.016654044319705866      656.0442633251681
0.016849474371572262      655.6906474005254
0.017045506256006017      655.3410484182122
0.017242437440758204      654.9954663782285
0.01743957168037589       654.4259357339118
0.017635803876907424      653.8468806289537
0.01783143240066149       653.2583010633541
0.018026758388388308      652.660197037113
0.01822208437611492       652.0525685502304
0.01841771289986836       651.4354156027061
0.018613945096398854      650.8087381945404
0.018811079336015085      650.1725363257332
0.019007894687321662      649.4968759881058
0.01920381230049143       648.8239567076332
0.019399129129200405      648.153778484316
0.01959414487161704       647.4863413181537
0.01978916061403359       646.8216452091465
0.01998447744274231       646.1596901572943
0.020180395055911654      645.5004761625972
0.020377210407217645      644.8440032250552
0.020574360469106157      644.2493892838942
0.020770608273960874      643.6765809992685
0.020966252262493188      643.1255783711779
0.021161593642948652      642.5963813996227
0.021356935023404883      642.0889900846026
0.021552579011939476      641.6034044261179
0.021748826816797996      641.1396244241685
0.021945976878691802      640.6976500787541
0.022142917141692885      640.3561374809311
0.022338957981867254      640.0590245852156
0.022534396907280062      639.8063113916079
0.02272953417907009       639.5979979001077
0.02292467145086023       639.434084110715
0.02312011037627338       639.3145700234301
0.02331615121644832       639.2394556382527
0.023513091479450195      639.208740955183
0.023710025135207962      639.1420189650322
0.02390605945730262       639.1247700064151
0.024101491924457957      639.1569940793321
0.024296622768016963      639.2386911837825
0.024491753611575823      639.3698613197668
0.02468718607873073       639.5505044872848
0.024883220400824673      639.7806206863365
0.025080154056581445      640.0602099169221
0.025277299572591536      640.446891286478
0.025473542893039384      640.855857096882
0.02566918243840792       641.2871073481336
0.025864519396400307      641.7406420402336
0.026059856354392216      642.2164611731815
0.026255495899759323      642.7145647469773
0.026451739220204794      643.2349527616212
0.026648884736211575      643.777625217113
0.02684569473774919       644.3670536931513
0.027041607073256636      644.9625087522694
0.027236918672681274      645.5639903944668
0.027431929210095855      646.1714986197439
0.027626939747510428      646.7850334281005
0.027822251346935042      647.4045948195367
0.028018163682442445      648.0301827940524
0.028214973683980002      648.6617973516477
0.028412120943583204      649.2622057529452
0.028608365984047285      649.8516495293331
0.02880400723361381       650.4301286808115
0.02899934588786498       650.9976432073802
0.02919468454211669       651.5541931090391
0.029390325791684838      652.0997783857885
0.02958657083215161       652.6343990376282
0.029783718091758563      653.1580550645582
0.029980652759780888      653.5076687757444
0.030176688080480362      653.8564192392373
0.030372121537075924      654.204306455037
0.03056725336547531       654.5513304231433
0.030762385193874833      654.8974911435565
0.030957818650470807      655.2427886162764
0.031153853971170976      655.587222841303
0.031350788639194264      655.9307938186363
