% Model:              brazing.mph
% Version:            COMSOL 5.3.0.223
% Date:               Oct 20 2018, 00:19
% Dimension:          1
% Nodes:              161
% Expressions:        1
% Description:        Line graph
% x                       Height
0                         642.2124529792674
1.9693985890610136E-4     642.1767246202004
3.9298030043864816E-4     642.152826284103
5.884188308682271E-4      642.1407579709747
7.835557095112735E-4      642.1405196808162
9.786925881542028E-4      642.1521114136269
0.0011741311185834375     642.175533169407
0.0013701715601154056     642.2107849481566
0.0015671114190207022     642.2578667498756
0.0017642608961497635     642.0200278293848
0.0019605081241513326     641.7773114596426
0.0021561515411346144     641.5297176406489
0.002351492352702621      641.2772463724036
0.0025468331642698894     641.0198976549069
0.0027424765812509564     640.7576714881586
0.0029387238092488436     640.4905678721589
0.0031358732863727766     640.2185868069076
0.0033326885608882563     639.8497169134988
0.0035286060983021257     639.4845967766872
0.0037239228519497995     639.1232263964733
0.003918938519653848      638.7656057728568
0.004113954187357973      638.4117349058378
0.004309270941005876      638.0616137954163
0.004505188478420127      637.7152424415922
0.004702003752936137      637.3726208443655
0.004899138702461749      637.0237981417858
0.005095371599302965      636.6906977327466
0.005291000816927052      636.3733196172477
0.005486327495291825      636.0716637952892
0.005681654173656831      635.785730266871
0.0058772833912816074     635.5155190319933
0.0060735162881239745     635.261030090656
0.006270651237651189      635.0222634428592
0.006467582778148322      634.8456962875347
0.006663615013526554      634.7021663136485
0.006859045413116663      634.5916735212006
0.0070541741987231454     634.5142179101912
0.007249302984329781      634.46979948062
0.007444733383920351      634.4584182324871
0.007640765619299351      634.4800741657926
0.007837697159797551      634.5347672805365
0.008034634474091872      634.5285286107447
0.008230672405352359      634.5597692888242
0.008426108448549354      634.6284893147748
0.008621242851524007      634.7346886885965
0.008816377254498534      634.8783674102893
0.009011813297695145      635.0595254798533
0.009207851228955002      635.2781628972884
0.00940478854324844       635.5342796625947
0.00960192671152544       635.8578517657619
0.00979816278359587       636.1954868033273
0.009993795147248338      636.5471847752909
0.010189124956984269      636.9129456816529
0.010384454766719743      637.2927695224131
0.010580087130370853      637.6866562975714
0.010776323202439026      638.0946060071282
0.01097346137071288       638.516618651083
0.011170281912174305      638.8992119922544
0.011366204645540166      639.2907536131345
0.011561526547508357      639.6912435137233
0.011756547339625332      640.1006816940206
0.011951568131742307      640.5190681540267
0.0121468900337105        640.9464028937416
0.012342812767076368      641.3826859131651
0.0125396333085378        641.8279172122974
0.012736771215691979      642.1236516670083
0.012933007030171178      642.4164593826994
0.013128639138602195      642.7063403593705
0.013323968694306592      642.9932945970218
0.013519298250011432      643.2773220956532
0.013714930358443784      643.5584228552649
0.0139111661729252        643.8365968758566
0.014108304080082462      644.1118441574285
0.014305241249097643      644.1059383389336
0.014501279037039759      644.103399951507
0.014696714938233999      644.1042289951488
0.014891849199866372      644.108425469859
0.015086983461498874      644.1159893756376
0.015282419362693495      644.1269207124844
0.01547845715063625       644.1412194803999
0.015675394319652317      644.1588856793836
0.015872325504405583      643.7740065200938
0.01606835738884011       643.394939636689
0.016263787440706973      643.021685029169
0.016458915880206496      642.6542426975338
0.016654044319705866      642.2926126417836
0.016849474371572262      641.9367948619184
0.017045506256006017      641.5867893579381
0.017242437440758204      641.2425961298427
0.01743957168037589       640.6704671628873
0.017635803876907424      640.0878175343775
0.01783143240066149       639.4946472443136
0.018026758388388308      638.8909562926951
0.01822208437611492       638.2767446795224
0.01841771289986836       637.6520124047953
0.018613945096398854      637.0167594685138
0.018811079336015085      636.370985870678
0.019007894687321662      635.6944699904933
0.01920381230049143       635.0193107585579
0.019399129129200405      634.3455081748724
0.01959414487161704       633.6730622394364
0.01978916061403359       633.00197295225
0.01998447744274231       632.3322403133133
0.020180395055911654      631.6638643226261
0.020377210407217645      630.9968449801886
0.020574360469106157      630.4024742797787
0.020770608273960874      629.8286228690314
0.020966252262493188      629.275290747947
0.021161593642948652      628.7424779165252
0.021356935023404883      628.2301843747662
0.021552579011939476      627.73841012267
0.021748826816797996      627.2671551602364
0.021945976878691802      626.8164194874655
0.022142917141692885      626.4775022087348
0.022338957981867254      626.1828011011669
0.022534396907280062      625.9323161647618
0.02272953417907009       625.7260473995195
0.02292467145086023       625.5639948054401
0.02312011037627338       625.4461583825235
0.02331615121644832       625.3725381307697
0.023513091479450195      625.3431340501788
0.023710025135207962      625.2721404174534
0.02390605945730262       625.250997264181
0.024101491924457957      625.2797045903616
0.024296622768016963      625.3582623959951
0.024491753611575823      625.4866706810816
0.02468718607873073       625.664929445621
0.024883220400824673      625.8930386896135
0.025080154056581445      626.170998413059
0.025277299572591536      626.5672118359471
0.025473542893039384      626.9843871742212
0.02566918243840792       627.4225244278811
0.025864519396400307      627.8816235969269
0.026059856354392216      628.3616846813586
0.026255495899759323      628.8627076811764
0.026451739220204794      629.3846925963799
0.026648884736211575      629.9276394269693
0.02684569473774919       630.5257583232792
0.027041607073256636      631.1288520661029
0.027236918672681274      631.7369206554404
0.027431929210095855      632.3499640912916
0.027626939747510428      632.9679823736565
0.027822251346935042      633.5909755025351
0.028018163682442445      634.2189434779276
0.028214973683980002      634.8518862998338
0.028412120943583204      635.4622520521917
0.028608365984047285      636.0601627167042
0.02880400723361381       636.6456182933711
0.02899934588786498       637.2186187821925
0.02919468454211669       637.7791641831684
0.029390325791684838      638.3272544962989
0.02958657083215161       638.8628897215839
0.029783718091758563      639.3860698590233
0.029980652759780888      639.7380085863794
0.030176688080480362      640.0903356459281
0.030372121537075924      640.4430510376694
0.03056725336547531       640.7961547616036
0.030762385193874833      641.1496468177304
0.030957818650470807      641.5035272060501
0.031153853971170976      641.8577959265624
0.031350788639194264      642.2124529792674
