% Model:              brazing.mph
% Version:            COMSOL 5.3.0.223
% Date:               Oct 20 2018, 00:24
% Dimension:          1
% Nodes:              161
% Expressions:        1
% Description:        Line graph
% x                       Height
0                         625.4999840687072
1.9693985890610136E-4     625.466349741254
3.9298030043864816E-4     625.4439444392137
5.884188308682271E-4      625.4327681625867
7.835557095112735E-4      625.4328209113728
9.786925881542028E-4      625.444102685572
0.0011741311185834375     625.4666134851843
0.0013701715601154056     625.5003533102097
0.0015671114190207022     625.5453221606482
0.0017642608961497635     625.3088340743902
0.0019605081241513326     625.0698838416075
0.0021561515411346144     624.8284714623001
0.002351492352702621      624.5845969364678
0.0025468331642698894     624.3382602641109
0.0027424765812509564     624.0894614452292
0.0029387238092488436     623.8382004798226
0.0031358732863727766     623.5844773678914
0.0033326885608882563     623.2219683129792
0.0035286060983021257     622.8653720831794
0.0037239228519497995     622.514688678492
0.003918938519653848      622.1699180989168
0.004113954187357973      621.8310603444539
0.004309270941005876      621.4981154151035
0.004505188478420127      621.1710833108654
0.004702003752936137      620.8499640317394
0.004899138702461749      620.5091440029596
0.005095371599302965      620.1851466656516
0.005291000816927052      619.8779720198155
0.005486327495291825      619.5876200654512
0.005681654173656831      619.3140908025588
0.0058772833912816074     619.0573842311384
0.0060735162881239745     618.8175003511896
0.006270651237651189      618.5944391627128
0.006467582778148322      618.4193281507635
0.006663615013526554      618.2763143001429
0.006859045413116663      618.1653976108508
0.0070541741987231454     618.0865780828876
0.007249302984329781      618.039855716253
0.007444733383920351      618.0252305109472
0.007640765619299351      618.0427024669698
0.007837697159797551      618.0922715843212
0.008034634474091872      618.0865510420032
0.008230672405352359      618.1168879574589
0.008426108448549354      618.1832823306884
0.008621242851524007      618.2857341616918
0.008816377254498534      618.4242434504691
0.009011813297695145      618.5988101970202
0.009207851228955002      618.8094344013451
0.00940478854324844       619.0561160634439
0.00960192671152544       619.3548885099771
0.00979816278359587       619.669173548382
0.009993795147248338      619.9989711786587
0.010189124956984269      620.3442814008073
0.010384454766719743      620.7051042148275
0.010580087130370853      621.0814396207197
0.010776323202439026      621.4732876184836
0.01097346137071288       621.8806482081193
0.011170281912174305      622.2384632931462
0.011366204645540166      622.6070817994143
0.011561526547508357      622.9865037269243
0.011756547339625332      623.3767290756755
0.011951568131742307      623.7777578456682
0.0121468900337105        624.1895900369026
0.012342812767076368      624.6122256493783
0.0125396333085378        625.0456646830955
0.012736771215691979      625.3196173183795
0.012933007030171178      625.5936972670613
0.013128639138602195      625.8679045291407
0.013323968694306592      626.1422391046177
0.013519298250011432      626.4167009934923
0.013714930358443784      626.6912901957647
0.0139111661729252        626.9660067114347
0.014108304080082462      627.2408505405024
0.014305241249097643      627.2300395628562
0.014501279037039759      627.2235054433871
0.014696714938233999      627.2212481820955
0.014891849199866372      627.223267778981
0.015086983461498874      627.2295642340439
0.015282419362693495      627.2401375472841
0.01547845715063625       627.2549877187015
0.015675394319652317      627.2741147482963
0.015872325504405583      626.9082041539892
0.01606835738884011       626.5481995225873
0.016263787440706973      626.194100854091
0.016458915880206496      625.8459081484997
0.016654044319705866      625.5036214058139
0.016849474371572262      625.1672406260332
0.017045506256006017      624.8367658091579
0.017242437440758204      624.5121969551878
0.01743957168037589       623.9641593634362
0.017635803876907424      623.4081681358863
0.01783143240066149       622.8442232725381
0.018026758388388308      622.2723247733916
0.01822208437611492       621.6924726384468
0.01841771289986836       621.1046668677036
0.018613945096398854      620.5089074611623
0.018811079336015085      619.9051944188226
0.019007894687321662      619.2610270068378
0.01920381230049143       618.6198928491862
0.019399129129200405      617.9817919458675
0.01959414487161704       617.3467242968818
0.01978916061403359       616.7146899022291
0.01998447744274231       616.0856887619094
0.020180395055911654      615.4597208759228
0.020377210407217645      614.8367862442692
0.020574360469106157      614.2733632318776
0.020770608273960874      613.7306542013379
0.020966252262493188      613.2086591526503
0.021161593642948652      612.7073780858145
0.021356935023404883      612.2268110008308
0.021552579011939476      611.766957897699
0.021748826816797996      611.3278187764191
0.021945976878691802      610.9093936369911
0.022142917141692885      610.5882647218374
0.022338957981867254      610.3091655716603
0.022534396907280062      610.0720961864597
0.02272953417907009       609.8770565662356
0.02292467145086023       609.7240467109881
0.02312011037627338       609.6130666207173
0.02331615121644832       609.5441162954229
0.023513091479450195      609.5171957351051
0.023710025135207962      609.4534136207668
0.02390605945730262       609.4367324774296
0.024101491924457957      609.4671523050936
0.024296622768016963      609.5446731037588
0.024491753611575823      609.6692948734252
0.02468718607873073       609.8410176140927
0.024883220400824673      610.0598413257616
0.025080154056581445      610.3257660084316
0.025277299572591536      610.694807931068
0.025473542893039384      611.0849780387421
0.02566918243840792       611.4962763314535
0.025864519396400307      611.9287028092024
0.026059856354392216      612.3822574719887
0.026255495899759323      612.8569403198126
0.026451739220204794      613.3527513526739
0.026648884736211575      613.8696905705726
0.02684569473774919       614.4310301447823
0.027041607073256636      614.9984485740727
0.027236918672681274      615.5719458584434
0.027431929210095855      616.1515219978949
0.027626939747510428      616.7371769924268
0.027822251346935042      617.3289108420394
0.028018163682442445      617.9267235467324
0.028214973683980002      618.530615106506
0.028412120943583204      619.1024892297908
0.028608365984047285      619.6647513061139
0.02880400723361381       620.2174013354753
0.02899934588786498       620.7604393178752
0.02919468454211669       621.2938652533136
0.029390325791684838      621.8176791417903
0.02958657083215161       622.3318809833056
0.029783718091758563      622.8364707778592
0.029980652759780888      623.166470325676
0.030176688080480362      623.4973097630755
0.030372121537075924      623.8289890900576
0.03056725336547531       624.1615083066223
0.030762385193874833      624.4948674127696
0.030957818650470807      624.8290664084996
0.031153853971170976      625.1641052938121
0.031350788639194264      625.4999840687072
