% Model:              brazing.mph
% Version:            COMSOL 5.3.0.223
% Date:               Oct 20 2018, 00:45
% Dimension:          1
% Nodes:              225
% Expressions:        1
% Description:        Line graph
% x                       Height
0                         640.9524950573488
2.1191841480136804E-4     640.8589059087391
4.2353438892247565E-4     640.7260140692515
6.349689892252786E-4      640.5538195388863
8.463435942227858E-4      640.3423223176434
0.001057779685752053      640.0915224055228
0.001269398639759412      639.8014198025243
0.001481321517995422      639.4720145086482
0.0017252358262731596     639.0333345175716
0.0019686866163640313     638.5635755121915
0.0022118589563155885     638.0627374925075
0.002454938550168189      637.5308204585202
0.0026981113144448556     636.9678244102295
0.0029415629522145732     636.3737493476348
0.0031854785295931678     635.7485952707367
0.0034450106912723537     634.9773749151303
0.0037039863009040125     634.1747439807822
0.003962627412610827      633.3407024676922
0.0042211569424298        632.4752503758602
0.004479798094906585      631.5783877052867
0.004738773785972872      630.6501144559711
0.004998306069542035      629.6904306279138
0.005274868491808245      628.5632972366785
0.005550758931995686      627.4191503115036
0.0058262454501036105     626.2579898523887
0.006101597285810183      625.0798158593341
0.006377084073678616      623.8846283323397
0.006652975052596927      622.6724272714052
0.006929538280995558      621.4432126765312
0.007206101510950518      620.1656491196957
0.007481992491406557      618.905903337403
0.007757479280801014      617.6639753296531
0.00803283111802884       616.439865096446
0.008308317637660222      615.2335726377823
0.008584208079380276      614.0450979536612
0.008860770503195153      612.8744410440831
0.009120302815147717      611.7741593837715
0.00937927853441616       610.7158587793891
0.009637919714987194      609.699539230936
0.009896449272866283      608.7252007384121
0.010155090412673047      607.7928433018178
0.010414066050518256      606.9024669211525
0.01067359824059789       606.0540715964166
0.010917512776055054      605.2811733701757
0.011160965100129169      604.5602468358527
0.011404139717480647      603.8912919934477
0.01164722176512739       603.2743088429605
0.011890396591516505      602.7092973843916
0.012133849333188814      602.1962576177402
0.012377764493855997      601.735189543007
0.01258968694000722       601.3776303380489
0.012801305803204788      601.0616018916403
0.013012742322906452      600.7871042037813
0.013224118052332232      600.5541372744718
0.01343555464954572       600.3627011037123
0.013647173667633327      600.212795691502
0.013859096345786744      600.1044210378416
0.014071014760598048      600.0536559890706
0.014282630734729056      600.0436593298949
0.01449406533504172       600.0744310603144
0.014705439940049088      600.1459711803292
0.014916876031588231      600.2582796899394
0.015128494985605482      600.4113565891445
0.015340417863851432      600.6052018779451
0.01558433217214941       600.8479874665891
0.015827782962260412      601.1501187058581
0.016070955302232025      601.5115955957519
0.016314034896104664      601.9324181362707
0.0165572076604014        602.4125863274148
0.01680065929819124       602.9521001691837
0.01704457487559009       603.5509596615776
0.01730410703726679       604.2050793198365
0.017563082646895985      604.9006000532643
0.01782172375860034       605.6375218618606
0.018080253288416847      606.4158447456256
0.01833889444089119       607.2355687045596
0.018597870131955005      608.096693738662
0.018857402415521692      608.9992198479333
0.019133964837753384      609.9652724821381
0.019409855277906563      610.9507709025623
0.019685341795980367      611.9557151092059
0.019960693631652874      612.9801051020692
0.0202361804194872        614.0239408811522
0.020512071398371242      615.0872224464543
0.020788634626735362      616.1699497979762
0.02106519785666259       617.2219822359338
0.021341088837091095      618.2629477806513
0.021616575626458134      619.292846432129
0.02189192746365859       620.3116781903669
0.022167413983262562      621.3194430553651
0.02244330442495508       622.3161410271233
0.022719866848742224      623.3017721056418
0.022979399160698737      624.1238928239565
0.023238374879971102      624.9252506109667
0.023497016060546046      625.7058454666726
0.023755545618429033      626.4656773910742
0.02401418675823971       627.204746384172
0.024273162396088833      627.923052445965
0.024532694586172417      628.6205955764541
0.02477660912165014       629.1951671957083
0.02502006144574469       629.7370697166263
0.025263236063116538      630.2463031392077
0.025506318110783622      630.722867463453
0.025749492937193107      631.1667626893623
0.02599294567888585       631.5779888169349
0.026236860839573585      631.9565458461714
0.026448783285734738      632.2297313190659
0.02666040214894219       632.4854612481251
0.026871838668653707      632.7237356333488
0.027083214398089334      632.9445544747373
0.027294650995312687      633.1479177722905
0.027506270013410168      633.3338255260081
0.02771819269157351       633.5022777358905
0.02793011110637494       633.5785026378215
0.028141727080496122      633.6357833276011
0.028353161680798985      633.6741198052288
0.028564536285796558      633.6935120707047
0.028775972377325904      633.6939601240296
0.028987591331333325      633.6754639652022
0.029199514209569403      633.6380235942233
0.02944342851784522       633.4631227675784
0.02968687930793418       633.245517829578
0.02993005164788383       632.9852087802223
0.030173131241734534      632.6821956195114
0.0304163040060093        632.3364783474453
0.0306597556437771        631.9480569640239
0.030903671221153783      631.5169314692471
0.031163203382828072      630.8968244459769
0.03142217899245488       630.2321530727089
0.03168082010415685       629.5229173494431
0.03193934963397098       628.7691172761796
0.032197990786442934      627.9707528529186
0.03245696647750436       627.1278240796594
0.032716498761068635      626.2403309564027
0.03299306118333142       625.1140173076543
0.03326895162351545       623.9675457871842
0.03354443814161999       622.8009163949923
0.03381978997732317       621.6141291310789
0.034095276765188226      620.4071839954439
0.03437116774410313       619.180080988087
0.03464773097249833       617.9328201090084
0.034924294202460265      616.6062023107464
0.03520018518292322       615.3008525285932
0.03547567197232456       614.0167707625482
0.035751023809559274      612.7539570126115
0.036026510329197556      611.5124112787835
0.036302400770924524      610.2921335610635
0.03657896319474637       609.0931238594521
0.036838495506703706      607.962763888666
0.03709747122597688       606.885850576101
0.037356112406552636      605.862383921757
0.03761464196443644       604.8923639256342
0.03787328310424792       603.9757905877328
0.03813225874209787       603.1126639080521
0.03839179093218227       602.3029838865929
0.03863570546763781       601.5702569786833
0.038879157791710306      600.9021523451634
0.03912233240906017       600.2986699860329
0.03936541445670531       599.759809901292
0.039608589283092806      599.285572090941
0.039852042024763494      598.8759565549791
0.04009595718542905       598.530963293407
0.040307879631580334      598.267037432562
0.04051949849477797       598.0547359073809
0.0407309350144797        597.8940587178631
0.040942310743905544      597.7850058640092
0.04115374734111909       597.727577345819
0.04136536635920676       597.7217731632923
0.04157728903736024       597.7675933164293
0.04178920745215007       597.8711577302836
0.042000823426259694      598.0248147416144
0.042212258026551035      598.2285643504212
0.04242363263153709       598.4824065567043
0.0426350687230549        598.7863413604639
0.042846687677050764      599.1403687616994
0.04305861055527523       599.5444887604114
0.04330252486354604       600.0374184365145
0.043545975653630026      600.5981952079521
0.04378914799357473       601.2268190747245
0.044032227587420474      601.9232900368314
0.04427540035169028       602.6876080942733
0.04451885198945311       603.5197732470494
0.044762767566824783      604.4197854951603
0.045022299728516735      605.4073829531868
0.04528127533816108       606.4421751521872
0.045539916449880535      607.5241620921618
0.045798445979712124      608.6533437731104
0.046057087132201545      609.8297201950331
0.04631606282328052       611.0532913579295
0.046575595106862454      612.3240572618002
0.04685215752913061       613.6742558326073
0.04712804796931999       615.0483322432766
0.04740353448742985       616.446286493808
0.04767888632313835       617.8681185842019
0.04795437311100872       619.3138285144584
0.048230264089928976      620.7834162845767
0.048506827318329566      622.2768818945575
0.04878339054829114       623.6879476654901
0.049059281528753745      625.0788934060544
0.04933476831815475       626.4497191162501
0.0496101201553891        627.8004247960777
0.04988560667502701       629.1310104455371
0.05016149711675364       630.4414760646278
0.050438059540575134      631.7318216533503
0.05069759185254397       632.7670191556127
0.05095656757182859       633.755706353834
0.05121520875241573       634.6978832480139
0.05147373831031092       635.5935498381527
0.051732379450133786      636.4427061242507
0.05199135508799517       637.2453521063071
0.05225088727809108       638.0014877843225
0.0524948018135407        638.590622602936
0.052738254137607306      639.1206560005788
0.05298142875495131       639.5915879772507
0.05322451080259058       640.003418532952
0.0534676856289722        640.3561476676828
0.05371113837063701       640.6497753814425
0.05395505353129665       640.8843016742318
0.05416697597743634       641.0199352509363
0.054378594840622414      641.113604939364
0.05459003136031263       641.1653107395144
0.05480140708972696       641.1750526513883
0.05501284368692898       641.1428306749854
0.0552244627050051        641.0686448103054
0.05543638538314697       640.9524950573488
