% Model:              brazing.mph
% Version:            COMSOL 5.3.0.223
% Date:               Oct 20 2018, 01:18
% Dimension:          1
% Nodes:              161
% Expressions:        1
% Description:        Line graph
% x                       Height
0                         612.2874023463309
1.9693985890610136E-4     612.252165863036
3.9298030043864816E-4     612.2276063244384
5.884188308682271E-4      612.2137237305382
7.835557095112735E-4      612.2105180813353
9.786925881542028E-4      612.2179893768298
0.0011741311185834375     612.2361376170217
0.0013701715601154056     612.2649628019109
0.0015671114190207022     612.3044649314975
0.0017642608961497635     612.0688542198573
0.0019605081241513326     611.8305888710878
0.0021561515411346144     611.5896688851892
0.002351492352702621      611.3460942621613
0.0025468331642698894     611.0998650020042
0.0027424765812509564     610.850981104718
0.0029387238092488436     610.5994425703025
0.0031358732863727766     610.3452493987578
0.0033326885608882563     609.9857707381699
0.0035286060983021257     609.6318705825265
0.0037239228519497995     609.2835489318277
0.003918938519653848      608.9408057860733
0.004113954187357973      608.6036411452634
0.004309270941005876      608.2720550093981
0.004505188478420127      607.9460473784771
0.004702003752936137      607.6256182525008
0.004899138702461749      607.2868843044399
0.005095371599302965      606.9646750639085
0.005291000816927052      606.6589905309064
0.005486327495291825      606.3698307054336
0.005681654173656831      606.0971955874902
0.0058772833912816074     605.841085177076
0.0060735162881239745     605.6014994741912
0.006270651237651189      605.3784384788356
0.006467582778148322      605.2037758559384
0.006663615013526554      605.0611144241819
0.006859045413116663      604.9504541835663
0.0070541741987231454     604.8717951340914
0.007249302984329781      604.8251372757572
0.007444733383920351      604.8104806085637
0.007640765619299351      604.8278251325111
0.007837697159797551      604.8771708475991
0.008034634474091872      604.8729192470269
0.008230672405352359      604.9044995872224
0.008426108448549354      604.9719118681855
0.008621242851524007      605.0751560899165
0.008816377254498534      605.2142322524152
0.009011813297695145      605.3891403556815
0.009207851228955002      605.5998803997157
0.00940478854324844       605.8464523845175
0.00960192671152544       606.1459192231472
0.00979816278359587       606.4605215852846
0.009993795147248338      606.7902594709301
0.010189124956984269      607.1351328800835
0.010384454766719743      607.4951418127447
0.010580087130370853      607.8702862689139
0.010776323202439026      608.260566248591
0.01097346137071288       608.665981751776
0.011170281912174305      609.024093999831
0.011366204645540166      609.3925029134872
0.011561526547508357      609.7712084927446
0.011756547339625332      610.1602107376029
0.011951568131742307      610.5595096480623
0.0121468900337105        610.9691052241229
0.012342812767076368      611.3889974657845
0.0125396333085378        611.8191863730473
0.012736771215691979      612.09325358152
0.012933007030171178      612.3671370207652
0.013128639138602195      612.640836690783
0.013323968694306592      612.914352591573
0.013519298250011432      613.1876847231355
0.013714930358443784      613.4608330854705
0.0139111661729252        613.7337976785781
0.014108304080082462      614.006578502458
0.014305241249097643      614.0012035552514
0.014501279037039759      613.9995573624387
0.014696714938233999      614.00163992402
0.014891849199866372      614.007451239995
0.015086983461498874      614.0169913103639
0.015282419362693495      614.0302601351266
0.01547845715063625       614.0472577142832
0.015675394319652317      614.0679840478336
0.015872325504405583      613.7128658595375
0.01606835738884011       613.362987119776
0.016263787440706973      613.0183478285495
0.016458915880206496      612.6789479858575
0.016654044319705866      612.3447875917002
0.016849474371572262      612.0158666460776
0.017045506256006017      611.6921851489898
0.017242437440758204      611.3737431004366
0.01743957168037589       610.8358440120768
0.017635803876907424      610.2892271642718
0.01783143240066149       609.7338925570216
0.018026758388388308      609.1698401903262
0.01822208437611492       608.5970700641857
0.01841771289986836       608.0155821785999
0.018613945096398854      607.425376533569
0.018811079336015085      606.8264531290928
0.019007894687321662      606.1877700895676
0.01920381230049143       605.5515695055361
0.019399129129200405      604.9178513769986
0.01959414487161704       604.2866157039548
0.01978916061403359       603.6578624864048
0.01998447744274231       603.0315917243489
0.020180395055911654      602.4078034177866
0.020377210407217645      601.7864975667181
0.020574360469106157      601.2241956469696
0.020770608273960874      600.6823924368548
0.020966252262493188      600.1610879363735
0.021161593642948652      599.6602821455258
0.021356935023404883      599.1799750643117
0.021552579011939476      598.7201666927313
0.021748826816797996      598.2808570307842
0.021945976878691802      597.8620460784709
0.022142917141692885      597.5396618632761
0.022338957981867254      597.2593850758428
0.022534396907280062      597.0212157161706
0.02272953417907009       596.8251537842598
0.02292467145086023       596.6711992801102
0.02312011037627338       596.5593522037219
0.02331615121644832       596.489612555095
0.023513091479450195      596.4619803342293
0.023710025135207962      596.3991620957777
0.02390605945730262       596.3834099404113
0.024101491924457957      596.4147238681298
0.024296622768016963      596.4931038789335
0.024491753611575823      596.6185499728224
0.02468718607873073       596.7910621497962
0.024883220400824673      597.0106404098552
0.025080154056581445      597.2772847529993
0.025277299572591536      597.6461441227624
0.025473542893039384      598.0359557379747
0.02566918243840792       598.4467195986363
0.025864519396400307      598.878435704747
0.026059856354392216      599.3311040563069
0.026255495899759323      599.8047246533159
0.026451739220204794      600.2992974957743
0.026648884736211575      600.8148225836818
0.02684569473774919       601.3747836102198
0.027041607073256636      601.9402410671585
0.027236918672681274      602.5111949544978
0.027431929210095855      603.0876452722379
0.027626939747510428      603.6695920203787
0.027822251346935042      604.2570351989201
0.028018163682442445      604.8499748078623
0.028214973683980002      605.4484108472052
0.028412120943583204      606.0149116745384
0.028608365984047285      606.5711005607853
0.02880400723361381       607.1169775059456
0.02899934588786498       607.6525425100192
0.02919468454211669       608.1777955730064
0.029390325791684838      608.6927366949068
0.02958657083215161       609.1973658757207
0.029783718091758563      609.6916831154482
0.029980652759780888      610.0150633361136
0.030176688080480362      610.3387534662634
0.030372121537075924      610.6627535058973
0.03056725336547531       610.9870634550155
0.030762385193874833      611.3116833136179
0.030957818650470807      611.6366130817047
0.031153853971170976      611.9618527592756
0.031350788639194264      612.2874023463309
