% Model:              brazing.mph
% Version:            COMSOL 5.3.0.223
% Date:               Oct 23 2018, 11:18
% Dimension:          1
% Nodes:              145
% Expressions:        1
% Description:        Line graph
% x                       Height
0                         625.6893045087011
1.8037553861809572E-4     625.9305086018488
3.5951128344368776E-4     626.1211984599904
5.377561773732229E-4      626.2613740831263
7.154644111300318E-4      626.3510354712562
8.929933875627798E-4      626.3901826243801
0.0010707015910786408     626.3788155424983
0.0012489464247083767     626.3169342256105
0.0014280820795340731     626.2045386737166
0.0016084574989771061     626.0416288868169
0.0017793134314883058     625.9748930983425
0.0019491114898538484     625.8846986439623
0.002118149876008701      625.771045523677
0.0022867308232763497     625.6339337374864
0.002455159027530182      625.4733632853902
0.0026237400128558564     625.2893341673886
0.0027927784749207734     625.0818463834815
0.0029625766466419693     624.850899933669
0.0031334327293582195     624.5964948179512
0.0033042867504275058     624.4194653197831
0.0034740828875811486     624.23818291876
0.0036431193341009516     624.0526476148826
0.0038116983146850476     623.8628594081506
0.003980124516686077      623.668818298564
0.004148703455848711      623.4705242861228
0.004317739819749776      623.267977370827
0.004487535833529769      623.0611775526764
0.004658389691119368      622.8501248316713
0.0048387629974717405     622.7251177855642
0.005017896580971026      622.6067224214188
0.005196139373513023      622.4949387392355
0.0053738455543625        622.3897667390142
0.005551372514551955      622.291206420755
0.005729078726427549      622.1992577844576
0.005907321580834967      622.1139208301223
0.006086455256670912      622.0351955577488
0.006266828685292636      621.9630819673374
0.0064472042239161545     622.098825410651
0.0066263399687470585     622.2438879007257
0.00680458486268183       622.398269437562
0.0069822930964438265     622.5619700211599
0.007159822072881748      622.7349896515192
0.007337530276402798      622.91732832864
0.007515775110037768      623.1089860525221
0.007694910764868775      623.3099628231655
0.007875286184317232      623.5202586405707
0.008046142116827224      623.785071689895
0.008215940175191578      624.0426633474423
0.008384978561345261      624.293033613213
0.008553559508611747      624.5361824872068
0.008721987712864422      624.7721099694239
0.008890568698188937      625.0008160598643
0.00905960716025268       625.2223007585278
0.009229405331972688      625.4365640654144
0.009400261414687729      625.6436059805244
0.009571115435747398      625.9524612474427
0.009740911572891598      626.2329751964456
0.009909948019402086      626.4851478275339
0.010078526999976944      626.7089791407069
0.010246953201968763      626.904469135965
0.010415532141122159      627.0716178133081
0.010584568505013912      627.2104251727361
0.010754364518784467      627.3208912142491
0.010925218376364454      627.403015937847
0.011105591682722255      627.5599856431659
0.01128472526622686       627.6728711588036
0.011462968058774099      627.7416724847604
0.011640674239628768      627.7663896210363
0.011818201199823401      627.747022567631
0.01199590741170419       627.6835713245449
0.012174150266116847      627.5760358917777
0.012353283941958112      627.4244162693295
0.012533657370585264      627.2287124572003
0.01271403176453574       627.1811472600888
0.012893166387683227      627.0822578293274
0.013071410176518557      626.9320441649164
0.013249117315197753      626.7305062668559
0.013426645199902413      626.4776441351454
0.013604352308338922      626.1734577697853
0.01378259603687098       625.8179471707753
0.013961730570013379      625.4111123381157
0.014142104844781908      624.9529532718065
0.014312959944399205      624.5604591997622
0.014482757184992078      624.1450028550049
0.014651794764271453      623.706584237535
0.014820374911240972      623.2452033473522
0.014988802317395246      622.7608601844566
0.01515738250242126       622.2535547488483
0.015326420157607648      621.7232870405269
0.015496217511551624      621.1700570594927
0.015667072761367945      620.5938648057457
0.01583792791479403       620.0845044613983
0.016007725163749622      619.5835238627488
0.01617676270725794       619.0909230097977
0.01634534277588875       618.6067019025448
0.016513770062946447      618.1308605409899
0.01668235009015449       617.6633989251332
0.016851387551041475      617.2043170549745
0.017021184676619543      616.7536149305139
0.017192039666560827      616.3112925517518
0.017372413817338207      615.940316115695
0.017551548228302124      615.5964301073745
0.017729791836073705      615.2796345267905
0.017907498824762332      614.9899293739428
0.018085026590318725      614.7273146488315
0.018262733610032132      614.4917903514564
0.018440977279666457      614.2833564818176
0.018620111782963036      614.1020130399152
0.018800486056004474      613.9477600257491
0.018980860449944497      614.0231536381352
0.019159995073081745      614.1306417323148
0.019338238861906984      614.2702243082884
0.01951594600057618       614.4419013660558
0.019693473885270874      614.645672905617
0.019871180993697383      614.8815389269721
0.020049424722219357      615.1494994301207
0.02022855925535152       615.4495544150631
0.0204089335301096        615.7817038817993
0.02057978862980686       616.1709235826864
0.020749585870478253      616.5645008026087
0.020918623449835097      616.9624355415663
0.021087203596881453      617.364727799559
0.021255631003112355      617.7713775765869
0.021424211188215206      618.1823848726501
0.021593248843479067      618.5977496877484
0.021763046197501558      619.0174720218819
0.02193390144739785       619.4415518750508
0.022104756600747556      619.9916664422303
0.02227455384962815       620.5176109937023
0.02244359139306247       621.0193855294673
0.022612171461619885      621.4969900495247
0.022780598748604386      621.9504245538749
0.022949178775739036      622.3796890425176
0.02311821623655202       622.784783515453
0.023288013362055097      623.1657079726812
0.023458868351919994      623.5224624142019
0.02363924250270423       623.9414483332944
0.023818376913674867      624.315877830794
0.023996620521453065      624.6457509067013
0.02417432751014825       624.9310675610161
0.02435185527571118       625.1718277937382
0.024529562295431146      625.3680316048678
0.02470780596507209       625.5196789944047
0.024886940468375387      625.6267699623492
0.025067314741423676      625.6893045087011
