% Model:              brazing.mph
% Version:            COMSOL 5.3.0.223
% Date:               Oct 23 2018, 10:36
% Dimension:          1
% Nodes:              145
% Expressions:        1
% Description:        Line graph
% x                       Height
0                         640.489013407263
1.8037553861809572E-4     640.7438178604422
3.5951128344368776E-4     640.9458593354565
5.377561773732229E-4      641.0951378323065
7.154644111300318E-4      641.1916533509919
8.929933875627798E-4      641.2354058915126
0.0010707015910786408     641.226395453869
0.0012489464247083767     641.1646220380605
0.0014280820795340731     641.0500856440879
0.0016084574989771061     640.8827862719504
0.0017793134314883058     640.8161026799619
0.0019491114898538484     640.725047644322
0.002118149876008701      640.609621165031
0.0022867308232763497     640.4698232420888
0.002455159027530182      640.3056538754954
0.0026237400128558564     640.1171130652508
0.0027927784749207734     639.904200811355
0.0029625766466419693     639.6669171138079
0.0031334327293582195     639.4052619726098
0.0033042867504275058     639.2277488680147
0.0034740828875811486     639.0454314974505
0.0036431193341009516     638.8583098609175
0.0038116983146850476     638.6663839584154
0.003980124516686077      638.4696537899442
0.004148703455848711      638.2681193555042
0.004317739819749776      638.0617806550949
0.004487535833529769      637.8506376887167
0.004658389691119368      637.6346904563695
0.0048387629974717405     637.5102078044224
0.005017896580971026      637.3913933286099
0.005196139373513023      637.2782470289324
0.0053738455543625        637.1707689053898
0.005551372514551955      637.068958957982
0.005729078726427549      636.9728171867091
0.005907321580834967      636.8823435915709
0.006086455256670912      636.7975381725677
0.006266828685292636      636.7184009296993
0.0064472042239161545     636.861562236095
0.0066263399687470585     637.013370119184
0.00680458486268183       637.1738245789668
0.0069822930964438265     637.3429256154432
0.007159822072881748      637.5206732286131
0.007337530276402798      637.7070674184766
0.007515775110037768      637.9021081850337
0.007694910764868775      638.1057955282844
0.007875286184317232      638.3181294482287
0.008046142116827224      638.5881132257039
0.008215940175191578      638.8501327742644
0.008384978561345261      639.1041880939106
0.008553559508611747      639.3502791846425
0.008721987712864422      639.5884060464599
0.008890568698188937      639.8185686793631
0.00905960716025268       640.0407670833515
0.009229405331972688      640.2550012584259
0.009400261414687729      640.4612712045857
0.009571115435747398      640.7777339057429
0.009740911572891598      641.0648729055729
0.009909948019402086      641.3226882040758
0.010078526999976944      641.5511798012517
0.010246953201968763      641.7503476971004
0.010415532141122159      641.920191891622
0.010584568505013912      642.0607123848165
0.010754364518784467      642.1719091766837
0.010925218376364454      642.253782267224
0.011105591682722255      642.4132392885386
0.01128472526622686       642.5271439667589
0.011462968058774099      642.5954963018851
0.011640674239628768      642.618296293917
0.011818201199823401      642.5955439428545
0.01199590741170419       642.5272392486978
0.012174150266116847      642.4133822114468
0.012353283941958112      642.2539728311014
0.012533657370585264      642.049011107662
0.01271403176453574       642.0055795413573
0.012893166387683227      641.9090086674054
0.013071410176518557      641.759298485807
0.013249117315197753      641.5564489965616
0.013426645199902413      641.3004601996691
0.013604352308338922      640.9913320951299
0.01378259603687098       640.6290646829436
0.013961730570013379      640.2136579631106
0.014142104844781908      639.7451119356306
0.014312959944399205      639.34501635963
0.014482757184992078      638.9212208031543
0.014651794764271453      638.4737252662038
0.014820374911240972      638.0025297487783
0.014988802317395246      637.507634250878
0.01515738250242126       636.9890387725027
0.015326420157607648      636.4467433136525
0.015496217511551624      635.8807478743273
0.015667072761367945      635.2910524545272
0.01583792791479403       634.7751696132126
0.016007725163749622      634.2673902604181
0.01617676270725794       633.7677143961441
0.01634534277588875       633.2761420203906
0.016513770062946447      632.7926731331573
0.01668235009015449       632.3173077344445
0.016851387551041475      631.8500458242519
0.017021184676619543      631.3908874025797
0.017192039666560827      630.9398324694279
0.017372413817338207      630.5648990110692
0.017551548228302124      630.2165853423697
0.017729791836073705      629.8948914633298
0.017907498824762332      629.5998173739493
0.018085026590318725      629.331363074228
0.018262733610032132      629.0895285641661
0.018440977279666457      628.8743138437636
0.018620111782963036      628.6857189130203
0.018800486056004474      628.5237437719366
0.018980860449944497      628.6057630991934
0.019159995073081745      628.7197096687382
0.019338238861906984      628.8655834805713
0.01951594600057618       629.0433845346927
0.019693473885270874      629.2531128311022
0.019871180993697383      629.4947683697998
0.020049424722219357      629.7683511507854
0.02022855925535152       630.0738611740591
0.0204089335301096        630.4112984396212
0.02057978862980686       630.8090035327103
0.020749585870478253      631.2103062746021
0.020918623449835097      631.6152066652973
0.021087203596881453      632.0237047047953
0.021255631003112355      632.4358003930961
0.021424211188215206      632.8514937302001
0.021593248843479067      633.2707847161067
0.021763046197501558      633.6936733508165
0.02193390144739785       634.1201596343294
0.022104756600747556      634.6837690014727
0.02227455384962815       635.2222936563286
0.02244359139306247       635.7357335988974
0.022612171461619885      636.2240888291791
0.022780598748604386      636.6873593471735
0.022949178775739036      637.1255451528809
0.02311821623655202       637.5386462463009
0.023288013362055097      637.9266626274338
0.023458868351919994      638.2895942962796
0.02363924250270423       638.7181143026378
0.023818376913674867      639.1005992827112
0.023996620521453065      639.4370492365006
0.02417432751014825       639.7274641640054
0.02435185527571118       639.9718440652258
0.024529562295431146      640.1701889401617
0.02470780596507209       640.3224987888132
0.024886940468375387      640.4287736111802
0.025067314741423676      640.489013407263
