% Model:              brazing.mph
% Version:            COMSOL 5.3.0.223
% Date:               Oct 23 2018, 11:17
% Dimension:          1
% Nodes:              225
% Expressions:        1
% Description:        Line graph
% x                       Height
0                         651.642218972712
2.3022181212578358E-4     651.5077664039859
4.5999325066962656E-4     651.3464211696743
6.894940081029028E-4      651.158183269777
9.189044129547812E-4      650.9430527042944
0.001148405006736289      650.7010294732266
0.0013781761183620641     650.432113576573
0.001608397441069865      650.1363050143341
0.001839314118928521      649.4455235959283
0.0020697760201574002     648.7587546443873
0.002299964597801726      648.075998159711
0.0025300619515304015     647.3972541418996
0.0027602503975112853     646.7225225909531
0.0029907120357255193     646.0518035068711
0.003221628319839081      645.385096889654
0.0034518885683530987     644.5040170523056
0.0036816980188178403     643.6149474140225
0.003911236592567028      642.7178879748044
0.004140684848157368      641.8128387346517
0.004370223557282477      640.8997996935644
0.004600033278179856      639.9787708515422
0.004830293931548535      639.0497522085853
0.005060048526376791      637.932923016041
0.005289355629682316      636.8289928478024
0.005518393850920054      635.7379617038695
0.005747342428834         634.6598295842423
0.00597638081262499       633.5945964889212
0.006205688240655705      632.5422624179052
0.006435443321622868      631.5028273711954
0.006665339619110656      630.3807469154058
0.006894787442849326      629.279467776708
0.007123965728649401      628.1989899551023
0.007353054043912613      627.1393134505885
0.007582232167524012      626.1004382631669
0.007811679667266285      625.082364392837
0.008041575479707366      624.0850918395993
0.008271887219609135      623.0788885407161
0.008501747728772392      622.1085287997893
0.008731337046705121      621.1740126168185
0.008960835851156599      620.2753399918038
0.009190425033567954      619.4125109247454
0.009420285272008154      618.5855254156429
0.009650596606620833      617.7943834644967
0.009881512912836019      617.029369632082
0.010111974573021956      616.3136939627523
0.010342163040896366      615.6473564565075
0.010572260416492441      615.0303571133478
0.010802449016030204      614.4626959332733
0.011032910939230619      613.9443729162834
0.011263827639190652      613.4753880623788
0.011494048967061755      613.0286843465633
0.011723820083820682      612.6572450398394
0.011953320682717213      612.3610701422074
0.012182731092678062      612.1401596536672
0.012412231855226382      611.9945135742189
0.012642003298903411      611.9241319038622
0.012872225116192546      611.9290146425974
0.013102446994778118      611.7874391689824
0.013332218499393473      611.7418137580863
0.01356171932266464       611.7921384099093
0.013791129793276359      611.9384131244514
0.01402063045289555       612.1806379017129
0.014250401630592404      612.5188127416931
0.014480623019759359      612.9529376443926
0.014711539835704642      613.2185695693073
0.014942001874208778      613.566269910296
0.015172190588640395      613.9960386673584
0.01540228807899374       614.507875840495
0.015632476661762654      615.1017814297057
0.015862938437253588      615.7777554349902
0.01609385485945594       616.5357978563487
0.016324115336228646      617.2088101414357
0.016553925013622208      617.9214178056279
0.016783463813500554      618.6736208489252
0.017012912294953733      619.4654192713277
0.01724245123020976       620.2968130728357
0.01747226117803945       621.1678022534486
0.017702522059672054      622.0783868131668
0.017932276794613372      622.989144849417
0.018161584037218948      623.9262297011054
0.018390622397267263      624.8896413682319
0.018619571113827754      625.8793798507965
0.018848609636427344      626.8954451487996
0.019077917203754128      627.9378372622405
0.019307672424828403      629.0065561911197
0.019537568573699274      629.9786541811641
0.01976701624968263       630.9666852829805
0.019996194388245302      631.9706494965687
0.020225282556443316      632.9905468219288
0.020454460532815345      634.0263772590612
0.02068390788479834       635.078140807965
0.020913803548616574      636.145837468641
0.02114411498977932       636.9996635099119
0.021373975201947604      637.8669860862149
0.02160356422393484       638.7478051975498
0.02183306273279162       639.6421208439169
0.02206265161925901       640.5499330253164
0.02229251156070728       641.4712417417475
0.02252282259658549       642.4060469932109
0.022753738766914562      643.0105168532394
0.022984200292012823      643.617218122543
0.023214388625279938      644.2261508011217
0.023444485866429166      644.8373148889752
0.023674674331359946      645.4507103861041
0.023905136119473275      646.0663372925077
0.024136052683548088      646.6841956081864
0.024366274021741702      646.8975843791033
0.024596045148762867      647.1132448231078
0.024825545757885373      647.3311769402001
0.02505495617806012       647.5513807303802
0.02528445695083446       647.7738561936484
0.025514228404773787      647.998603330004
0.025744450232385536      648.2256221394476
0.025974672267095825      648.0896767719429
0.026204443926923768      647.9331435414566
0.02643394490485871       647.7560224479887
0.02666335552995085       647.5583134915391
0.026892856344233315      647.340016672108
0.02712262767714175       647.101131989695
0.02735284922243193       646.8416594443005
0.027583766528201624      646.1829476292165
0.027814229053652367      645.5165338760598
0.028044418253299775      644.8424181848303
0.02827451622829193       644.160600555528
0.028504705296278778      643.4710809881534
0.028735167558720572      642.7738594827056
0.028966084470753738      642.0689360391854
0.029196345605491433      641.2009466933904
0.02942615593701711       640.3027560803814
0.02965569538872289       639.3743642001585
0.029885144521236064      638.4157710527217
0.030114684108324883      637.4269766380711
0.030344494710297387      636.4079809562061
0.030574756249911007      635.3587840071274
0.030804511377321087      634.2168660058945
0.031033819010118435      633.0669278205938
0.031262857758987544      631.9089694512251
0.03149180686390927       630.7429908977884
0.031720845775323685      629.5689921602839
0.031950153732830305      628.3869732387112
0.032179909346355486      627.1969341330707
0.0324098051544111        626.019339845157
0.032639252491552244      624.8500889742712
0.03286843029245836       623.6891815204135
0.0330975181233935        622.5366174835838
0.03332669576210278       621.3923968637823
0.03355614277523119       620.2565196610085
0.033786038098215655      619.1289858752629
0.034016348759356954      618.0520657205567
0.03424620819605658       617.0100729779997
0.034475796445315066      616.0030076475917
0.03470529418235937       615.0308697293326
0.03493488229610333       614.093659223223
0.035164741462093585      613.1913761292618
0.03539505171796626       612.32402044745
0.035625967353597694      611.5199408587779
0.03585642834714083       610.7721088103605
0.036086616150743635      610.0805243021973
0.03631671286286018       609.4451873342886
0.03654690079812825       608.8660979066345
0.036777362054689705      608.3432560192347
0.03700827808407173       607.8766616720894
0.03723849938140827       607.4628507937339
0.03746827046781093       607.1308506426657
0.03769777103645843       606.8806612188847
0.03792718141620601       606.712282522391
0.0381566821485052        606.625714553185
0.03838645356182577       606.620957311266
0.03861667534858004       606.6980107966345
0.038846895274787324      606.6793077915106
0.039076664838430766      606.7616832670816
0.03930616372759302       606.9451372233474
0.03953557226638858       607.2296696603082
0.039765070991905134      607.6152805779642
0.039994840228642616      608.1019699763148
0.040225059665450036      608.6897378553606
0.04045597761776665       609.1645856361396
0.04068644078597457       609.7227542320124
0.04091663062609736       610.364243642979
0.041146729240799984      611.0890538690394
0.04137691894925231       611.8971849101938
0.04160738185443156       612.7886367664418
0.04183829941298208       613.7634094377837
0.04206856149768976       614.6859206563099
0.04229837277362926       615.6455091401406
0.04252791316640542       616.6421748892756
0.04275736323887129       617.6759179037148
0.04298690376702529       618.7467381834587
0.04321671531340127       619.8546357285065
0.04344697780296935       620.999610538859
0.043676731016186174      622.2004398684837
0.04390603674591497       623.4106549268936
0.04413507359840861       624.6302557140882
0.04436402080919017       625.8592422300678
0.044593057824233256      627.0976144748327
0.04482236387867965       628.3453724483821
0.045052117578024006      629.6025161507168
0.045282012653644836      630.8642676996581
0.045511459262636354      632.1109729900675
0.04574063633797325       633.3426320219452
0.04596972344420469       634.5592447952911
0.046198900357357554      635.7608113101055
0.046428346642361965      636.9473315663877
0.04665824123294997       638.1188055641385
0.04688855484177433       639.2028211058034
0.04711841720894409       640.2654554409694
0.04734800837831597       641.3067085696358
0.04757750903201372       642.3265804918032
0.047807100065861544      643.3250712074716
0.04803696216230292       644.3021807166404
0.04826727536583021       645.2579090193102
0.048498193048686675      646.002894510947
0.048728656077441146      646.723900549201
0.04895884590902903       647.4209271340717
0.04918894464672031       648.0939742655596
0.04941913460997818       648.7430419436649
0.04964959790176041       649.3681301683869
0.04988051597838159       649.9692389397261
0.05011073543954296       650.2380833550384
0.0503405047004922        650.4969786811032
0.05057000345013497       650.74592491792
0.05079941201302823       650.9849220654894
0.05102891092631677       651.2139701238115
0.05125868051417213       651.4330690928854
0.051488900464733596      651.642218972712
