% Model:              brazing.mph
% Version:            COMSOL 5.3.0.223
% Date:               Oct 23 2018, 11:18
% Dimension:          1
% Nodes:              225
% Expressions:        1
% Description:        Line graph
% x                       Height
0                         652.2924945867845
2.3022181212578358E-4     652.1584356074264
4.5999325066962656E-4     651.9974472989766
6.894940081029028E-4      651.8095296614343
9.189044129547812E-4      651.5946826948001
0.001148405006736289      651.3529063990742
0.0013781761183620641     651.0842007742557
0.001608397441069865      650.7885658203454
0.001839314118928521      650.0981214130893
0.0020697760201574002     649.4116593950779
0.002299964597801726      648.7291797663107
0.0025300619515304015     648.0506825267881
0.0027602503975112853     647.3761676765106
0.0029907120357255193     646.7056352154771
0.003221628319839081      646.0390851436883
0.0034518885683530987     645.1582085658683
0.0036816980188178403     644.2693473570943
0.003911236592567028      643.3725015173657
0.004140684848157368      642.467671046683
0.004370223557282477      641.5548559450465
0.004600033278179856      640.6340562124552
0.004830293931548535      639.7052718489101
0.005060048526376791      638.5885986395916
0.005289355629682316      637.4848277243955
0.005518393850920054      636.3939591033214
0.005747342428834         635.3159927763699
0.00597638081262499       634.2509287435408
0.006205688240655705      633.1987670048337
0.006435443321622868      632.1595075602492
0.006665339619110656      631.0375285141657
0.006894787442849326      629.9363558592837
0.007123965728649401      628.8559895956031
0.007353054043912613      627.7964297231238
0.007582232167524012      626.7576762418462
0.007811679667266285      625.7397291517697
0.008041575479707366      624.7425884528948
0.008271887219609135      623.7364488206134
0.008501747728772392      622.766152727339
0.008731337046705121      621.8317001730715
0.008960835851156599      620.9330911578108
0.009190425033567954      620.0703256815574
0.009420285272008154      619.2434037443106
0.009650596606620833      618.452325346071
0.009881512912836019      617.6873222116864
0.010111974573021956      616.9716529556176
0.010342163040896366      616.3053175778647
0.010572260416492441      615.6883160784278
0.010802449016030204      615.1206484573072
0.011032910939230619      614.6023147145021
0.011263827639190652      614.1333148500131
0.011494048967061755      613.6865764971229
0.011723820083820682      613.3150784969881
0.011953320682717213      613.0188208496085
0.012182731092678062      612.7978035549841
0.012412231855226382      612.6520266131153
0.012642003298903411      612.5814900240013
0.012872225116192546      612.5861937876429
0.013102446994778118      612.4446066149541
0.013332218499393473      612.3989221109233
0.01356171932266464       612.4491402755503
0.013791129793276359      612.5952611088352
0.01402063045289555       612.837284610778
0.014250401630592404      613.1752107813785
0.014480623019759359      613.6090396206371
0.014711539835704642      613.8745625391659
0.014942001874208778      614.2221162230204
0.015172190588640395      614.6517006722005
0.01540228807899374       615.1633158867063
0.015632476661762654      615.7569618665381
0.015862938437253588      616.432638611695
0.01609385485945594       617.1903461221779
0.016324115336228646      617.8631097701129
0.016553925013622208      618.5754660763312
0.016783463813500554      619.3274150408324
0.017012912294953733      620.1189566636169
0.01724245123020976       620.9500909446847
0.01747226117803945       621.8208178840353
0.017702522059672054      622.7311374816692
0.017932276794613372      623.6415684855139
0.018161584037218948      624.5783330255699
0.018390622397267263      625.5414311018374
0.018619571113827754      626.5308627143164
0.018848609636427344      627.546627863007
0.019077917203754128      628.5887265479087
0.019307672424828403      629.657158769022
0.019537568573699274      630.6289023312212
0.01976701624968263       631.6165902476728
0.019996194388245302      632.6202225183766
0.020225282556443316      633.6397991433329
0.020454460532815345      634.675320122542
0.02068390788479834       635.7267854560029
0.020913803548616574      636.7941951437165
0.02114411498977932       637.6476748686983
0.021373975201947604      638.5146600120001
0.02160356422393484       639.3951505736218
0.02183306273279162       640.2891465535636
0.02206265161925901       641.1966479518254
0.02229251156070728       642.1176547684069
0.02252282259658549       643.0521670033085
0.022753738766914562      643.656303256924
0.022984200292012823      644.2626781623306
0.023214388625279938      644.8712917195281
0.023444485866429166      645.4821439285165
0.023674674331359946      646.0952347892961
0.023905136119473275      646.7105643018663
0.024136052683548088      647.3281324662277
0.024366274021741702      647.5412236598754
0.024596045148762867      647.7565779694933
0.024825545757885373      647.9741953950812
0.02505495617806012       648.1940759366393
0.02528445695083446       648.4162195941677
0.025514228404773787      648.640626367666
0.025744450232385536      648.8672962571345
0.025974672267095825      648.7311579073263
0.026204443926923768      648.574404016626
0.02643394490485871       648.3970345850335
0.02666335552995085       648.199049612549
0.026892856344233315      647.9804490991728
0.02712262767714175       647.7412330449042
0.02735284922243193       647.4814014497439
0.027583766528201624      646.8225056299319
0.027814229053652367      646.1558868855902
0.028044418253299775      645.4815452167187
0.02827451622829193       644.7994806233175
0.028504705296278778      644.1096931053868
0.028735167558720572      643.412182662926
0.028966084470753738      642.7069492959357
0.029196345605491433      641.83873638857
0.02942615593701711       640.9403312649702
0.02965569538872289       640.0117339251359
0.029885144521236064      639.0529443690676
0.030114684108324883      638.0639625967654
0.030344494710297387      637.0447886082286
0.030574756249911007      635.9954224034577
0.030804511377321087      634.8532977146724
0.031033819010118435      633.7031678452024
0.031262857758987544      632.5450327950475
0.03149180686390927       631.378892564208
0.031720845775323685      630.2047471526839
0.031950153732830305      629.0225965604749
0.032179909346355486      627.8324407875812
0.0324098051544111        626.6546858048266
0.032639252491552244      625.4852923061063
0.03286843029245836       624.3242602914197
0.0330975181233935        623.1715897607671
0.03332669576210278       622.027280714149
0.03355614277523119       620.8913331515644
0.033786038098215655      619.763747073014
0.034016348759356954      618.6867368780429
0.03424620819605658       617.644670148052
0.034475796445315066      616.6375468830416
0.03470529418235937       615.6653670830116
0.03493488229610333       614.7281307479623
0.035164741462093585      613.825837877893
0.03539505171796626       612.9584884728043
0.035625967353597694      612.1543907513278
0.03585642834714083       611.4065550614604
0.036086616150743635      610.7149814032017
0.03631671286286018       610.0796697765521
0.03654690079812825       609.5006201815116
0.036777362054689705      608.9778326180799
0.03700827808407173       608.5113070862573
0.03723849938140827       608.0975670936585
0.03746827046781093       607.7656363741044
0.03769777103645843       607.5155149275946
0.03792718141620601       607.3472027541295
0.0381566821485052        607.2606998537092
0.03838645356182577       607.256006226333
0.03861667534858004       607.3331218720017
0.038846895274787324      607.3146321366971
0.039076664838430766      607.3972004399965
0.03930616372759302       607.5808267818995
0.03953557226638858       607.8655111624067
0.039765070991905134      608.251253581518
0.039994840228642616      608.7380540392329
0.040225059665450036      609.325912535552
0.04045597761776665       609.8010201427765
0.04068644078597457       610.3594318035465
0.04091663062609736       611.0011475178623
0.041146729240799984      611.7261672857236
0.04137691894925231       612.5344911071307
0.04160738185443156       613.4261189820833
0.04183829941298208       614.4010509105816
0.04206856149768976       615.3238006778726
0.04229837277362926       616.2836371786074
0.04252791316640542       617.2805604127858
0.04275736323887129       618.3145703804082
0.04298690376702529       619.3856670814747
0.04321671531340127       620.4938505159846
0.04344697780296935       621.6391206839386
0.043676731016186174      622.8402039830476
0.04390603674591497       624.0506852021837
0.04413507359840861       625.2705643413469
0.04436402080919017       626.4998414005374
0.044593057824233256      627.7385163797553
0.04482236387867965       628.9865892790001
0.045052117578024006      630.2440600982721
0.045282012653644836      631.5060890443718
0.045511459262636354      632.7530839463167
0.04574063633797325       633.9850448041067
0.04596972344420469       635.201971617742
0.046198900357357554      636.4038643872225
0.046428346642361965      637.5907231125481
0.04665824123294997       638.7625477937189
0.04688855484177433       639.8468680823636
0.04711841720894409       640.9098146351095
0.04734800837831597       641.9513874519561
0.04757750903201372       642.9715865329036
0.047807100065861544      643.9704118779523
0.04803696216230292       644.9478634871017
0.04826727536583021       645.9039413603522
0.048498193048686675      646.6492412108948
0.048728656077441146      647.3705653319051
0.04895884590902903       648.0679137233835
0.04918894464672031       648.7412863853298
0.04941913460997818       649.3906833177442
0.04964959790176041       650.0161045206263
0.04988051597838159       650.6175499939765
0.05011073543954296       650.8867218286135
0.0503405047004922        651.1459289846958
0.05057000345013497       651.3951714622232
0.05079941201302823       651.6344492611955
0.05102891092631677       651.8637623816136
0.05125868051417213       652.0831108234763
0.051488900464733596      652.2924945867845
