% Model:              brazing.mph
% Version:            COMSOL 5.3.0.223
% Date:               Oct 23 2018, 11:17
% Dimension:          1
% Nodes:              193
% Expressions:        1
% Description:        Line graph
% x                       Height
0                         604.095547078514
1.6028433640637486E-4     604.1757892766179
3.201839556876346E-4      604.2488522250994
4.7982673004648776E-4     604.3147359239586
6.393411493738095E-4      604.3734403731953
7.988560137323205E-4      604.4249655728097
9.58500122107595E-4       604.4693115228015
0.0011184019611720658     604.5064782231711
0.0012786893978073315     604.5364656739182
0.0014692881782178572     604.5599266294951
0.0016592398034323465     604.5664687174991
0.0018487589083489172     604.55609193793
0.00203806159906999       604.5287962907879
0.0022273647228667317     604.4845817760729
0.0024168851255237504     604.423448393785
0.002606838908709185      604.3453961439241
0.0027974407000143733     604.2504250264902
0.003000214284638094      604.1268410001048
0.0032022105766743216     603.9876138666086
0.003403687017647933      603.8327436260017
0.0036049030444305387     603.6622302782839
0.0038061191011872996     603.4760738234554
0.004007595631967136      603.2742742615161
0.00420959207329518       603.056831592466
0.00441236586612622       602.8237458163051
0.004615139632985625      602.5589669764973
0.004817136048636202      602.2907567768377
0.005018612553936322      602.0191152173261
0.005219828585313435      601.7440422979628
0.005421044586718146      601.4655380187476
0.0056225210022172924     601.1836023796805
0.005824517268584787      600.8982353807615
0.006027290827249049      600.6094370219907
0.006217890949519272      600.30872163081
0.006407844130704021      600.0265413895127
0.0065973647866391935     599.7628962980984
0.00678666880286996       599.5177863565674
0.006975972806121895      599.2912115649195
0.007165493423165078      599.0831719231551
0.007355446539677438      598.8936674312736
0.007546046571713631      598.7226980892755
0.00770633524869351       598.5950074117652
0.007866237248851195      598.4851773516731
0.008025880956992212      598.393207908999
0.008185395381580456      598.319099083743
0.008344909844757132      598.2628508759051
0.008504553668569658      598.2244632854854
0.008664455861201733      598.2039363124837
0.008824744806995652      598.2012699569001
0.008985029143401957      598.2184202541739
0.009144928762683142      598.2575895569897
0.009304571537041926      598.3187778653476
0.009464085956369179      598.4019851792474
0.00962360082072762       598.5072114986893
0.009783244929102828      598.6344568236733
0.009943146768167231      598.7837211541993
0.010103434204802428      598.9550044902672
0.010294032985212885      599.1521413911479
0.010483984610427306      599.3692902733336
0.01067350371534381       599.6064511368248
0.010862806406064813      599.8636239816211
0.011052109529861487      600.1408088077227
0.011241629932518437      600.4380056151296
0.011431583715703804      600.7552144038417
0.011622185507008923      601.0924351738591
0.011824959091632737      601.4249782363096
0.012026955383669057      601.7500636351224
0.012228431824642762      602.0676913702977
0.01242964785142546       602.3778614418352
0.012630863908182311      602.6805738497351
0.012832340438962243      602.9758285939973
0.01303433688029038       603.2636256746221
0.013237110673121513      603.543965091609
0.013439884439981065      603.7966735293072
0.013641880855631786      604.0296131299367
0.013843357360932049      604.2427838934975
0.014044573392309304      604.4361858199894
0.014245789393714157      604.6098189094125
0.014447265809213447      604.763683161767
0.014649262075581083      604.8977785770525
0.01485203563424549       605.0121051552693
0.015042635756515686      605.1069984909847
0.015232588937700405      605.185016580277
0.015422109593635547      605.246159423146
0.015611413609866287      605.290427019592
0.015800717613118194      605.3178193696148
0.01599023823016135       605.3283364732146
0.01618019134667368       605.3219783303911
0.016370791378709844      605.2987449411445
0.016531080055689654      605.2524537169937
0.01669098205584727       605.2028045988438
0.016850625763988217      605.149797586695
0.017010140188576394      605.0934326805472
0.017169654651752998      605.0337098804004
0.017329298475565455      604.9706291862547
0.017489200668197463      604.9041905981098
0.01764948961399131       604.834394115966
0.01780977395039525       604.7324633905052
0.017969673569674088      604.6186627454615
0.018129316344030533      604.4929921808346
0.01828883076335545       604.3554516966246
0.01844834562771156       604.2060412928316
0.01860798973608443       604.0447609694555
0.018767891575146484      603.8716107264964
0.018928179011779317      603.6865905639543
0.019118777792188433      603.4059021116944
0.019308729417401523      603.1026924000492
0.019498248522316707      602.7769614290185
0.019687551213036395      602.4287091986023
0.019876854336831753      602.0579357088005
0.02006637473948738       601.6646409596134
0.020256328522671414      601.2488249510409
0.020446930313975188      600.8104876830828
0.02064970389860279       600.2832338331546
0.02085170019064286       599.7430431834355
0.02105317663162028       599.1899157339257
0.02125439265840668       598.623851484625
0.021455608715167235      598.0448504355336
0.02165708524595088       597.4529125866515
0.021859081687282764      596.8480379379785
0.02206185548011769       596.2302264895147
0.022264629246980954      595.6137169702411
0.022466625662635346      595.0095866684366
0.022668102167939252      594.4178355841009
0.022869318199320136      593.8384637172345
0.023070534200728618      593.2714710678372
0.023272010616231548      592.7168576359088
0.023474006882602858      592.1746234214496
0.02367678044127098       591.6447684244595
0.02386738056353977       591.1336256337667
0.024057333744723106      590.6573592509739
0.02424685440065687       590.2159692760813
0.024436158416886237      589.8094557090885
0.02462546242013677       589.4378185499959
0.024814983037178547      589.1010577988033
0.025004936153689494      588.7991734555106
0.025195536185724256      588.532165520118
0.0253558248627017        588.3030036563375
0.025515726862856965      588.1035993520367
0.025675370570995573      587.9339526072159
0.02583488499558142       587.7940634218751
0.02599439945875569       587.6839317960142
0.02615404328256581       587.6035577296333
0.026313945475195465      587.5529412227323
0.026474234420986946      587.5320822753113
0.026634518757392422      587.5357370336366
0.02679441837667279       587.5656956226248
0.026954061151030752      587.6219580422759
0.02711357557035719       587.7045242925898
0.027273090434714816      587.8133943735666
0.027432734543089202      587.9485682852062
0.027592636382152785      588.1100460275087
0.02775292381878715       588.2978276004741
0.02794352259919713       588.5323504789443
0.02813347422441108       588.8006200515293
0.028322993329327112      589.1026363182293
0.028512296020047647      589.4383992790441
0.02870159914384385       589.8079089339739
0.028891119546500334      590.2111652830184
0.02908107332968523       590.6481683261778
0.029271675120989875      591.1189180634522
0.02947444870561504       591.6354226186259
0.029676444997652693      592.1637996176809
0.02987792143862772       592.704049060617
0.030079137465411736      593.2561709474344
0.030280353522169904      593.8201652781329
0.030481830052951155      594.3960320527127
0.030683826494280624      594.9837712711736
0.030886600287113104      595.5833829335157
0.03108937405397396       596.1706831532464
0.03129137046962597       596.7513656716922
0.03149284697492751       597.3254304888528
0.03169406300630604       597.8928776047285
0.03189527900771217       598.453707019319
0.03209675542321274       599.0079187326247
0.03229875168958166       599.5555127446452
0.03250152524824737       600.0964890553807
0.03269212537051706       600.535684040922
0.03288207855170127       600.9503341584779
0.033071599207635916      601.3404394080482
0.033260903223866156      601.7059997896332
0.033450207227117564      602.0470153032327
0.033639727844160215      602.3634859488468
0.03382968096067204       602.6554117264754
0.034020280992707694      602.9227926361187
0.034180569669686675      603.112792066732
0.03434047166984347       603.2903900329699
0.0345001153779836        603.4555865348325
0.03465962980257096       603.6083815723196
0.03481914426574675       603.7487751454313
0.034978788089558385      603.8767672541675
0.03513869028218957       603.9923578985284
0.035298979227982585      604.095547078514
