% Model:              brazing.mph
% Version:            COMSOL 5.3.0.223
% Date:               Oct 23 2018, 10:30
% Dimension:          1
% Nodes:              193
% Expressions:        1
% Description:        Line graph
% x                       Height
0                         622.3367531451019
1.6028433640637486E-4     622.4177359149209
3.201839556876346E-4      622.4915285961305
4.7982673004648776E-4     622.5581311887312
6.393411493738095E-4      622.6175436927227
7.988560137323205E-4      622.6697661081051
9.58500122107595E-4       622.7147984348784
0.0011184019611720658     622.7526406730426
0.0012786893978073315     622.7832928225977
0.0014692881782178572     622.8074116485086
0.0016592398034323465     622.8144927855088
0.0018487589083489172     622.8045362335987
0.00203806159906999       622.7775419927779
0.0022273647228667317     622.7335100630465
0.0024168851255237504     622.6724404444045
0.002606838908709185      622.5943331368521
0.0027974407000143733     622.4991881403892
0.003000214284638094      622.3762363674283
0.0032022105766743216     622.2374849141174
0.003403687017647933      622.0829337804564
0.0036049030444305387     621.9125829664453
0.0038061191011872996     621.726432472084
0.004007595631967136      621.5244822973726
0.00420959207329518       621.3067324423112
0.00441236586612622       621.0731829068997
0.004615139632985625      620.8076008980391
0.004817136048636202      620.5385603550094
0.005018612553936322      620.2660612778106
0.005219828585313435      619.9901036664428
0.005421044586718146      619.7106875209058
0.0056225210022172924     619.4278128411999
0.005824517268584787      619.1414796273248
0.006027290827249049      618.8516878792806
0.006217890949519272      618.5503276929351
0.006407844130704021      618.2674124782366
0.0065973647866391935     618.0029422351854
0.00678666880286996       617.7569169637812
0.006975972806121895      617.5293366640243
0.007165493423165078      617.3202013359145
0.007355446539677438      617.1295109794519
0.007546046571713631      616.9572655946364
0.00770633524869351       616.8284677272596
0.007866237248851195      616.7175231222863
0.008025880956992212      616.6244317797168
0.008185395381580456      616.5491936995509
0.008344909844757132      616.4918088817886
0.008504553668569658      616.4522773264299
0.008664455861201733      616.430599033475
0.008824744806995652      616.4267740029237
0.008985029143401957      616.4428229159686
0.009144928762683142      616.4808222951916
0.009304571537041926      616.5407721405928
0.009464085956369179      616.6226724521723
0.00962360082072762       616.72652322993
0.009783244929102828      616.8523244738657
0.009943146768167231      617.0000761839798
0.010103434204802428      617.169778360272
0.010294032985212885      617.3652907756834
0.010483984610427306      617.5807643750744
0.01067350371534381       617.8161991584444
0.010862806406064813      618.0715951257939
0.011052109529861487      618.3469522771227
0.011241629932518437      618.6422706124306
0.011431583715703804      618.957550131718
0.011622185507008923      619.2927908349845
0.011824959091632737      619.6232508465274
0.012026955383669057      619.9463268461515
0.012228431824642762      620.2620188338566
0.01242964785142546       620.5703268096429
0.012630863908182311      620.8712507735104
0.012832340438962243      621.164790725459
0.01303433688029038       621.4509466654887
0.013237110673121513      621.7297185935996
0.013439884439981065      621.9802834411794
0.013641880855631786      622.2111331446806
0.013843357360932049      622.4222677041035
0.014044573392309304      622.6136871194481
0.014245789393714157      622.7853913907142
0.014447265809213447      622.9373805179019
0.014649262075581083      623.0696545010113
0.01485203563424549       623.1822133400423
0.015042635756515686      623.2757327184596
0.015232588937700405      623.3523820442347
0.015422109593635547      623.4121613173677
0.015611413609866287      623.4550705378583
0.015800717613118194      623.4811097057068
0.01599023823016135       623.4902788209131
0.01618019134667368       623.4825778834772
0.016370791378709844      623.4580068933992
0.016531080055689654      623.4105951178141
0.01669098205584727       623.3598839034254
0.016850625763988217      623.3058732502329
0.017010140188576394      623.248563158237
0.017169654651752998      623.1879536274372
0.017329298475565455      623.1240446578339
0.017489200668197463      623.056836249427
0.01764948961399131       622.9863284022163
0.01780977395039525       622.8834933220016
0.017969673569674088      622.768836586817
0.018129316344030533      622.6423581966626
0.01828883076335545       622.5040581515383
0.01844834562771156       622.353936451444
0.01860798973608443       622.1919930963801
0.018767891575146484      622.0182280863462
0.018928179011779317      621.8326414213424
0.019118777792188433      621.5513953796404
0.019308729417401523      621.247686626761
0.019498248522316707      620.921515162704
0.019687551213036395      620.5728809874695
0.019876854336831753      620.2017841010573
0.02006637473948738       619.8082245034678
0.020256328522671414      619.3922021947006
0.020446930313975188      618.953717174756
0.02064970389860279       618.4262026658026
0.02085170019064286       617.8858900493458
0.02105317663162028       617.3327793253851
0.02125439265840668       616.7668704939209
0.021455608715167235      616.188163554953
0.02165708524595088       615.5966585084815
0.021859081687282764      614.9923553545063
0.02206185548011769       614.3752540930276
0.022264629246980954      613.7589057216901
0.022466625662635346      613.1550566498689
0.022668102167939252      612.5637068775642
0.022869318199320136      611.9848564047759
0.023070534200728618      611.418505231504
0.023272010616231548      610.8646533577485
0.023474006882602858      610.3233007835094
0.02367678044127098       609.7944475087867
0.02386738056353977       609.2843591008165
0.024057333744723106      608.8091673373132
0.02424685440065687       608.3688722182767
0.024436158416886237      607.9634737437073
0.02462546242013677       607.5929719136046
0.024814983037178547      607.2573667279689
0.025004936153689494      606.9566581868002
0.025195536185724256      606.6908462900983
0.0253558248627017        606.4628564105597
0.025515726862856965      606.264627190965
0.025675370570995573      606.0961586313147
0.02583488499558142       605.9574507316084
0.02599439945875569       605.8485034918464
0.02615404328256581       605.7693169120284
0.026313945475195465      605.7198909921547
0.026474234420986946      605.700225732225
0.026634518757392422      605.7050812220886
0.02679441837667279       605.7362588467277
0.026954061151030752      605.7937586061424
0.02711357557035719       605.8775805003328
0.027273090434714816      605.9877245292988
0.027432734543089202      606.1241906930405
0.027592636382152785      606.2869789915578
0.02775292381878715       606.4760894248508
0.02794352259919713       606.7123707925306
0.02813347422441108       606.9824076210728
0.028322993329327112      607.2861999104773
0.028512296020047647      607.6237476607445
0.02870159914384385       607.995050871874
0.028891119546500334      608.400109543866
0.02908107332968523       608.8389236767205
0.029271675120989875      609.3114932704374
0.02947444870561504       609.8297380757116
0.029676444997652693      610.3599357073639
0.02987792143862772       610.9020861653939
0.030079137465411736      611.4561894498022
0.030280353522169904      612.0222455605884
0.030481830052951155      612.6002544977526
0.030683826494280624      613.1902162612948
0.030886600287113104      613.7921308512151
0.03108937405397396       614.3813689789382
0.03129137046962597       614.9638587869565
0.03149284697492751       615.5396002752697
0.03169406300630604       616.1085934438779
0.03189527900771217       616.6708382927812
0.03209675542321274       617.2263348219794
0.03229875168958166       617.7750830314727
0.03250152524824737       618.3170829212611
0.03269212537051706       618.7582843367959
0.03288207855170127       619.1748322068199
0.033071599207635916      619.566726531333
0.033260903223866156      619.9339673103352
0.033450207227117564      620.2765545438266
0.033639727844160215      620.5944882318071
0.03382968096067204       620.8877683742766
0.034020280992707694      621.1563949712353
0.034180569669686675      621.3473684429138
0.03434047166984347       621.5259337146078
0.0345001153779836        621.6920907863176
0.03465962980257096       621.8458396580431
0.03481914426574675       621.9871803297843
0.034978788089558385      622.1161128015411
0.03513869028218957       622.2326370733136
0.035298979227982585      622.3367531451019
