% Model:              brazing.mph
% Version:            COMSOL 5.3.0.223
% Date:               Oct 23 2018, 11:30
% Dimension:          1
% Nodes:              225
% Expressions:        1
% Description:        Line graph
% x                       Height
0                         635.104240426433
2.3022181212578358E-4     634.9924750358457
4.5999325066962656E-4     634.8565602237188
6.894940081029028E-4      634.6964959900521
9.189044129547812E-4      634.5122823348458
0.001148405006736289      634.3039192581001
0.0013781761183620641     634.0714067598144
0.001608397441069865      633.8147448399893
0.001839314118928521      633.1933763679333
0.0020697760201574002     632.5784729680471
0.002299964597801726      631.9700346403301
0.0025300619515304015     631.368061384783
0.0027602503975112853     630.7725532014057
0.0029907120357255193     630.1835100901975
0.003221628319839081      629.6009320511592
0.0034518885683530987     628.817858895837
0.0036816980188178403     628.0323349152638
0.003911236592567028      627.2443601094395
0.004140684848157368      626.4539344783643
0.004370223557282477      625.6610580220383
0.004600033278179856      624.865730740461
0.004830293931548535      624.0679526336328
0.005060048526376791      623.0754542545136
0.005289355629682316      622.0986130307598
0.005518393850920054      621.137428962371
0.005747342428834         620.1919020493475
0.00597638081262499       619.2620322916895
0.006205688240655705      618.3478196893961
0.006435443321622868      617.4492642424683
0.006665339619110656      616.458924740555
0.006894787442849326      615.4899859598953
0.007123965728649401      614.5424479004895
0.007353054043912613      613.6163105623372
0.007582232167524012      612.7115739454389
0.007811679667266285      611.828238049794
0.008041575479707366      610.966302875403
0.008271887219609135      610.0840888622599
0.008501747728772392      609.234873184831
0.008731337046705121      608.4186558431162
0.008960835851156599      607.6354368371153
0.009190425033567954      606.885216166829
0.009420285272008154      606.1679938322563
0.009650596606620833      605.483769833398
0.009881512912836019      604.8148408553474
0.010111974573021956      604.1896686624166
0.010342163040896366      603.6082532546056
0.010572260416492441      603.0705946319146
0.010802449016030204      602.5766927943437
0.011032910939230619      602.1265477418922
0.011263827639190652      601.7201594745608
0.011494048967061755      601.3282450343514
0.011723820083820682      601.0019934198812
0.011953320682717213      600.74140463115
0.012182731092678062      600.5464786681579
0.012412231855226382      600.4172155309052
0.012642003298903411      600.3536152193914
0.012872225116192546      600.3556777336169
0.013102446994778118      600.232379319222
0.013332218499393473      600.1918296890696
0.01356171932266464       600.2340288431592
0.013791129793276359      600.3589767814913
0.01402063045289555       600.5666735040656
0.014250401630592404      600.8571190108821
0.014480623019759359      601.2303133019409
0.014711539835704642      601.4565003225855
0.014942001874208778      601.7544196947701
0.015172190588640395      602.1240714184945
0.01540228807899374       602.5654554937588
0.015632476661762654      603.0785719205633
0.015862938437253588      603.6634206989072
0.01609385485945594       604.3200018287913
0.016324115336228646      604.8981536295568
0.016553925013622208      605.5125130022867
0.016783463813500554      606.1630799469808
0.017012912294953733      606.8498544636394
0.01724245123020976       607.5728365522625
0.01747226117803945       608.3320262128497
0.017702522059672054      609.1274234454013
0.017932276794613372      609.9113792068608
0.018161584037218948      610.721545798395
0.018390622397267263      611.5579232200039
0.018619571113827754      612.4205114716874
0.018848609636427344      613.309310553446
0.019077917203754128      614.224320465279
0.019307672424828403      615.1655412071868
0.019537568573699274      616.0005955271554
0.01976701624968263       616.8548097546967
0.019996194388245302      617.7281838898107
0.020225282556443316      618.6207179324971
0.020454460532815345      619.5324118827567
0.02068390788479834       620.4632657405884
0.020913803548616574      621.413279505993
0.02114411498977932       622.1438315288873
0.021373975201947604      622.8929268039553
0.02160356422393484       623.660565331197
0.02183306273279162       624.4467471106125
0.02206265161925901       625.251472142202
0.02229251156070728       626.0747404259649
0.02252282259658549       626.9165519619019
0.022753738766914562      627.4264657267933
0.022984200292012823      627.9455759607148
0.023214388625279938      628.4738826636665
0.023444485866429166      629.0113858356485
0.023674674331359946      629.5580854766611
0.023905136119473275      630.1139815867034
0.024136052683548088      630.6790741657762
0.024366274021741702      630.8418599593922
0.024596045148762867      631.0126742315038
0.024825545757885373      631.1915169821109
0.02505495617806012       631.3783882112134
0.02528445695083446       631.5732879188116
0.025514228404773787      631.7762161049051
0.025744450232385536      631.9871727694942
0.025974672267095825      631.8643349774976
0.026204443926923768      631.7238660630529
0.02643394490485871       631.5657660261598
0.02666335552995085       631.3900348668185
0.026892856344233315      631.1966725850293
0.02712262767714175       630.9856791807916
0.02735284922243193       630.7570546541059
0.027583766528201624      630.163337760638
0.027814229053652367      629.5651398976663
0.028044418253299775      628.9624610651911
0.02827451622829193       628.355301263212
0.028504705296278778      627.7436604917295
0.028735167558720572      627.1275387507429
0.028966084470753738      626.5069360402529
0.029196345605491433      625.7441934254648
0.02942615593701711       624.9571659357657
0.02965569538872289       624.1458535711554
0.029885144521236064      623.310256331634
0.030114684108324883      622.4503742172019
0.030344494710297387      621.5662072278584
0.030574756249911007      620.6577553636039
0.030804511377321087      619.6538961575018
0.031033819010118435      618.6457456700609
0.031262857758987544      617.633303901281
0.03149180686390927       616.6165708511622
0.031720845775323685      615.595546519705
0.031950153732830305      614.5702309069083
0.032179909346355486      613.540624012773
0.0324098051544111        612.5149865994696
0.032639252491552244      611.4982585640844
0.03286843029245836       610.4904399066173
0.0330975181233935        609.4915306270686
0.03332669576210278       608.5015307254386
0.03355614277523119       607.5204402017265
0.033786038098215655      606.5482590559328
0.034016348759356954      605.6156753827081
0.03424620819605658       604.7142284871794
0.034475796445315066      603.8439183693464
0.03470529418235937       603.0047450292092
0.03493488229610333       602.1967084667681
0.035164741462093585      601.4198086820226
0.03539505171796626       600.674045674973
0.035625967353597694      599.980510620222
0.03585642834714083       599.3360157877058
0.036086616150743635      598.7405611774241
0.03631671286286018       598.194146789377
0.03654690079812825       597.6967726235647
0.036777362054689705      597.2484386799866
0.03700827808407173       596.8491449586434
0.03723849938140827       596.4936435261633
0.03746827046781093       596.2090170147376
0.03769777103645843       595.9952654243659
0.03792718141620601       595.8523887550487
0.0381566821485052        595.780387006786
0.03838645356182577       595.7792601795772
0.03861667534858004       595.8490082734229
0.038846895274787324      595.8360142140411
0.039076664838430766      595.9104366805257
0.03930616372759302       596.0722756728765
0.03953557226638858       596.3215311910938
0.039765070991905134      596.6582032351776
0.039994840228642616      597.0822918051274
0.040225059665450036      597.5937969009439
0.04045597761776665       598.0056402012626
0.04068644078597457       598.4900079505906
0.04091663062609736       599.0469001489275
0.041146729240799984      599.6763167962739
0.04137691894925231       600.3782578926299
0.04160738185443156       601.1527234379947
0.04183829941298208       601.999713432369
0.04206856149768976       602.7963619562923
0.04229837277362926       603.6261495225691
0.04252791316640542       604.4890761311992
0.04275736323887129       605.3851417821826
0.04298690376702529       606.3143464755196
0.04321671531340127       607.2766902112096
0.04344697780296935       608.2721729892532
0.043676731016186174      609.3128597680494
0.04390603674591497       610.3629809812041
0.04413507359840861       611.4225366287174
0.04436402080919017       612.4915267105894
0.044593057824233256      613.5699512268202
0.04482236387867965       614.6578101774093
0.045052117578024006      615.7551035623572
0.045282012653644836      616.8486845108451
0.045511459262636354      617.9315738729103
0.04574063633797325       619.0037716485527
0.04596972344420469       620.0652778377722
0.046198900357357554      621.1160924405693
0.046428346642361965      622.1562154569432
0.04665824123294997       623.1856468868946
0.04688855484177433       624.1239423637627
0.04711841720894409       625.0477958901247
0.04734800837831597       625.9572074659801
0.04757750903201372       626.8521770913294
0.047807100065861544      627.7327047661727
0.04803696216230292       628.5987904905093
0.04826727536583021       629.4504342643397
0.048498193048686675      630.0915489943791
0.048728656077441146      630.7175137761328
0.04895884590902903       631.3283286096007
0.04918894464672031       631.923993494783
0.04941913460997818       632.5045084316798
0.04964959790176041       633.0698734202906
0.04988051597838159       633.620088460616
0.05011073543954296       633.8418283864745
0.0503405047004922        634.0603289068476
0.05057000345013497       634.2755900217354
0.05079941201302823       634.4876117311378
0.05102891092631677       634.6963940350549
0.05125868051417213       634.9019369334866
0.051488900464733596      635.104240426433
