% Model:              brazing.mph
% Version:            COMSOL 5.3.0.223
% Date:               Oct 23 2018, 11:07
% Dimension:          1
% Nodes:              225
% Expressions:        1
% Description:        Line graph
% x                       Height
0                         646.7165981470617
2.3022181212578358E-4     646.5825635388367
4.5999325066962656E-4     646.4216530744224
6.894940081029028E-4      646.233866753818
9.189044129547812E-4      646.0192045770243
0.001148405006736289      645.7776665440413
0.0013781761183620641     645.5092526548683
0.001608397441069865      645.2139629095059
0.001839314118928521      644.5237349296141
0.0020697760201574002     643.8375289720673
0.002299964597801726      643.1553450368651
0.0025300619515304015     642.4771831240079
0.0027602503975112853     641.8030432334958
0.0029907120357255193     641.1329253653281
0.003221628319839081      640.4668295195056
0.0034518885683530987     639.5863820939943
0.0036816980188178403     638.6979621058365
0.003911236592567028      637.801569555032
0.004140684848157368      636.897204441581
0.004370223557282477      635.9848667654838
0.004600033278179856      635.0645565267397
0.004830293931548535      634.1362737253492
0.005060048526376791      633.020169724174
0.005289355629682316      631.9169759765545
0.005518393850920054      630.8266924824903
0.005747342428834         629.7493192419818
0.00597638081262499       628.6848562550289
0.006205688240655705      627.6333035216313
0.006435443321622868      626.5946610417893
0.006665339619110656      625.4733675724518
0.006894787442849326      624.372883193845
0.007123965728649401      623.2932079059688
0.007353054043912613      622.234341708823
0.007582232167524012      621.1962846024082
0.007811679667266285      620.1790365867237
0.008041575479707366      619.1825976617699
0.008271887219609135      618.1772178444148
0.008501747728772392      617.2076840518773
0.008731337046705121      616.273996284157
0.008960835851156599      615.3761545412541
0.009190425033567954      614.5141588231689
0.009420285272008154      613.6880091299007
0.009650596606620833      612.8977054614501
0.009881512912836019      612.1335232351761
0.010111974573021956      611.4186746863102
0.010342163040896366      610.7531598148522
0.010572260416492441      610.1369786208026
0.010802449016030204      609.5701311041612
0.011032910939230619      609.0526172649276
0.011263827639190652      608.5844371031022
0.011494048967061755      608.1385354826114
0.011723820083820682      607.7678797814079
0.011953320682717213      607.4724699994916
0.012182731092678062      607.2523061368627
0.012412231855226382      607.1073881935213
0.012642003298903411      607.0377161694668
0.012872225116192546      607.0432900646998
0.013102446994778118      606.9024835670967
0.013332218499393473      606.8575939045297
0.01356171932266464       606.9086210769987
0.013791129793276359      607.0555650845037
0.01402063045289555       607.298425927045
0.014250401630592404      607.6372036046221
0.014480623019759359      608.0718981172354
0.014711539835704642      608.3381987235151
0.014942001874208778      608.6865327134001
0.015172190588640395      609.11690008689
0.01540228807899374       609.6293008439853
0.015632476661762654      610.223734984686
0.015862938437253588      610.9002025089915
0.01609385485945594       611.6587034169023
0.016324115336228646      612.3322046728205
0.016553925013622208      613.0452881622896
0.016783463813500554      613.7979538853095
0.017012912294953733      614.5902018418805
0.01724245123020976       615.4220320320027
0.01747226117803945       616.2934444556753
0.017702522059672054      617.2044391128992
0.017932276794613372      618.1155468009736
0.018161584037218948      619.0529660923218
0.018390622397267263      620.0166969869432
0.018619571113827754      621.0067394848382
0.018848609636427344      622.0230935860071
0.019077917203754128      623.0657592904491
0.019307672424828403      624.134736598165
0.019537568573699274      625.1070414422164
0.01976701624968263       626.0952649678876
0.019996194388245302      627.099407175178
0.020225282556443316      628.1194680640881
0.020454460532815345      629.155447634618
0.02068390788479834       630.2073458867669
0.020913803548616574      631.2751628205356
0.02114411498977932       632.1290578720811
0.021373975201947604      632.9964311972832
0.02160356422393484       633.8772827961416
0.02183306273279162       634.7716126686564
0.02206265161925901       635.679420814828
0.02229251156070728       636.6007072346557
0.02252282259658549       637.5354719281402
0.022753738766914562      638.139865181275
0.022984200292012823      638.7464680556203
0.023214388625279938      639.355280551176
0.023444485866429166      639.9663026679422
0.023674674331359946      640.579534405919
0.023905136119473275      641.194975765106
0.024136052683548088      641.8126267455037
0.024366274021741702      642.0257901219476
0.024596045148762867      642.2411931494233
0.024825545757885373      642.458835827931
0.02505495617806012       642.6787181574706
0.02528445695083446       642.9008401380423
0.025514228404773787      643.1252017696456
0.025744450232385536      643.351803052281
0.025974672267095825      643.2155275197545
0.026204443926923768      643.0586196402276
0.02643394490485871       642.8810794137004
0.02666335552995085       642.6829068401731
0.026892856344233315      642.4641019196457
0.02712262767714175       642.2246646521178
0.02735284922243193       641.9645950375897
0.027583766528201624      641.3053993377888
0.027814229053652367      640.6384619659004
0.028044418253299775      639.9637829219241
0.02827451622829193       639.2813622058603
0.028504705296278778      638.5911998177093
0.028735167558720572      637.8932957574702
0.028966084470753738      637.1876500251439
0.029196345605491433      636.3189847981465
0.02942615593701711       635.4201064819224
0.02965569538872289       634.4910150764714
0.029885144521236064      633.5317105817934
0.030114684108324883      632.542192997889
0.030344494710297387      631.5224623247574
0.030574756249911007      630.472518562399
0.030804511377321087      629.3298199488675
0.031033819010118435      628.1790931647804
0.031262857758987544      627.0203382101375
0.03149180686390927       625.8535550849391
0.031720845775323685      624.6787437891853
0.031950153732830305      623.4959043228755
0.032179909346355486      622.3050366860102
0.0324098051544111        621.1265961444253
0.032639252491552244      619.9564967718245
0.03286843029245836       618.7947385682073
0.0330975181233935        617.641321533574
0.03332669576210278       616.4962456679248
0.03355614277523119       615.359510971259
0.033786038098215655      614.2311174435774
0.034016348759356954      613.1533251203978
0.03424620819605658       612.1104626310205
0.034475796445315066      611.1025299754456
0.03470529418235937       610.1295271536729
0.03493488229610333       609.1914541657029
0.035164741462093585      608.2883110115349
0.03539505171796626       607.4200976911695
0.035625967353597694      606.615159767214
0.03585642834714083       605.8664757279873
0.036086616150743635      605.1740455734895
0.03631671286286018       604.5378693037205
0.03654690079812825       603.9579469186807
0.036777362054689705      603.4342784183693
0.03700827808407173       602.9668638027871
0.03723849938140827       602.5522430593026
0.03746827046781093       602.2194420723505
0.03769777103645843       601.9684608419309
0.03792718141620601       601.7992993680438
0.0381566821485052        601.7119576506893
0.03838645356182577       601.7064356898671
0.03861667534858004       601.7827334855775
0.038846895274787324      601.7633174579878
0.039076664838430766      601.8449884638236
0.03930616372759302       602.0277465030846
0.03953557226638858       602.3115915757712
0.039765070991905134      602.6965236818835
0.039994840228642616      603.1825428214208
0.040225059665450036      603.7696489943838
0.04045597761776665       604.2438979705524
0.04068644078597457       604.8014788657647
0.04091663062609736       605.4423916800205
0.041146729240799984      606.1666364133197
0.04137691894925231       606.9742130656628
0.04160738185443156       607.8651216370491
0.04183829941298208       608.8393621274793
0.04206856149768976       609.7613798966843
0.04229837277362926       610.7204984556574
0.04252791316640542       611.7167178043986
0.04275736323887129       612.7500379429081
0.04298690376702529       613.8204588711858
0.04321671531340127       614.9279805892312
0.04344697780296935       616.072603097045
0.043676731016186174      617.2730959624736
0.04390603674591497       618.4829959634808
0.04413507359840861       619.7023031000664
0.04436402080919017       620.9310173722304
0.044593057824233256      622.169138779973
0.04482236387867965       623.4166673232938
0.045052117578024006      624.6736030021932
0.045282012653644836      625.935176150733
0.045511459262636354      627.1817245730966
0.04574063633797325       628.4132482692844
0.04596972344420469       629.6297472392963
0.046198900357357554      630.8312214831326
0.046428346642361965      632.0176710007926
0.04665824123294997       633.1890957922768
0.04688855484177433       634.2730906648459
0.04711841720894409       635.3357263126018
0.04734800837831597       636.3770027355441
0.04757750903201372       637.3969199336731
0.047807100065861544      638.395477906989
0.04803696216230292       639.3726766554912
0.04826727536583021       640.3285161791803
0.048498193048686675      641.0736412132843
0.048728656077441146      641.7948073707092
0.04895884590902903       642.4920146514548
0.04918894464672031       643.1652630555211
0.04941913460997818       643.8145525829086
0.04964959790176041       644.4398832336165
0.04988051597838159       645.0412550076454
0.05011073543954296       645.3103856769045
0.0503405047004922        645.5695843678114
0.05057000345013497       645.8188510803659
0.05079941201302823       646.0581858145682
0.05102891092631677       646.2875885704184
0.05125868051417213       646.5070593479161
0.051488900464733596      646.7165981470617
