% Model:              brazing.mph
% Version:            COMSOL 5.3.0.223
% Date:               Oct 23 2018, 11:18
% Dimension:          1
% Nodes:              145
% Expressions:        1
% Description:        Line graph
% x                       Height
0                         597.0550014835505
1.8037553861809572E-4     597.3101651071852
3.5951128344368776E-4     597.5123896354283
5.377561773732229E-4      597.6616750682805
7.154644111300318E-4      597.7580214057411
8.929933875627798E-4      597.8014286478106
0.0010707015910786408     597.7918967944887
0.0012489464247083767     597.7294258457755
0.0014280820795340731     597.614015801671
0.0016084574989771061     597.4456666621753
0.0017793134314883058     597.3820933961676
0.0019491114898538484     597.2942033748467
0.002118149876008701      597.1819965982128
0.0022867308232763497     597.0454730662658
0.002455159027530182      596.8846327790056
0.0026237400128558564     596.6994757364324
0.0027927784749207734     596.490001938546
0.0029625766466419693     596.2562113853465
0.0031334327293582195     595.998104076834
0.0033042867504275058     595.8300091585544
0.0034740828875811486     595.6563695528134
0.0036431193341009516     595.4771852596117
0.0038116983146850476     595.292456278949
0.003980124516686077      595.1021826108249
0.004148703455848711      594.9063642552401
0.004317739819749776      594.7050012121941
0.004487535833529769      594.4980934816871
0.004658389691119368      594.2856410637191
0.0048387629974717405     594.1682287947506
0.005017896580971026      594.054593265971
0.005196139373513023      593.9447344773807
0.0053738455543625        593.8386524289797
0.005551372514551955      593.7363471207677
0.005729078726427549      593.6378185527449
0.005907321580834967      593.5430667249112
0.006086455256670912      593.4520916372667
0.006266828685292636      593.3648932898112
0.0064472042239161545     593.5092356850206
0.0066263399687470585     593.6606191073364
0.00680458486268183       593.8190435567591
0.0069822930964438265     593.9845090332883
0.007159822072881748      594.1570155369243
0.007337530276402798      594.3365630676668
0.007515775110037768      594.523151625516
0.007694910764868775      594.7167812104717
0.007875286184317232      594.9174518225342
0.008046142116827224      595.1779280685677
0.008215940175191578      595.4297580516458
0.008384978561345261      595.6729417717688
0.008553559508611747      595.9074792289366
0.008721987712864422      596.1333704231492
0.008890568698188937      596.3506153544066
0.00905960716025268       596.5592140227087
0.009229405331972688      596.7591664280556
0.009400261414687729      596.9504725704473
0.009571115435747398      597.2588776057887
0.009740911572891598      597.5381529926676
0.009909948019402086      597.7882987310846
0.010078526999976944      598.0093148210394
0.010246953201968763      598.2012012625321
0.010415532141122159      598.3639580555625
0.010584568505013912      598.4975852001307
0.010754364518784467      598.602082696237
0.010925218376364454      598.6774505438809
0.011105591682722255      598.8342481159877
0.01128472526622686       598.9461883228093
0.011462968058774099      599.013271164346
0.011640674239628768      599.0354966405974
0.011818201199823401      599.0128647515639
0.01199590741170419       598.9453754972453
0.012174150266116847      598.8330288776415
0.012353283941958112      598.6758248927526
0.012533657370585264      598.4737635425788
0.01271403176453574       598.4465998968485
0.012893166387683227      598.3665325175832
0.013071410176518557      598.2335614047835
0.013249117315197753      598.0476865584487
0.013426645199902413      597.8089079785793
0.013604352308338922      597.517225665175
0.01378259603687098       597.1726396182358
0.013961730570013379      596.7751498377621
0.014142104844781908      596.3247563237534
0.014312959944399205      595.9452566099449
0.014482757184992078      595.542048878692
0.014651794764271453      595.1151331299949
0.014820374911240972      594.6645093638535
0.014988802317395246      594.1901775802679
0.01515738250242126       593.692137779238
0.015326420157607648      593.1703899607637
0.015496217511551624      592.6249341248451
0.015667072761367945      592.0557702714824
0.01583792791479403       591.5661803292318
0.016007725163749622      591.0834874803352
0.01617676270725794       590.6076917247929
0.01634534277588875       590.1387930626046
0.016513770062946447      589.6767914937705
0.01668235009015449       589.2216870182905
0.016851387551041475      588.7734796361646
0.017021184676619543      588.3321693473928
0.017192039666560827      587.8977561519753
0.017372413817338207      587.5430614603358
0.017551548228302124      587.2123706090557
0.017729791836073705      586.9056835981353
0.017907498824762332      586.6230004275741
0.018085026590318725      586.3643210973723
0.018262733610032132      586.12964560753
0.018440977279666457      585.9189739580471
0.018620111782963036      585.7323061489236
0.018800486056004474      585.5696421801596
0.018980860449944497      585.6587567708634
0.019159995073081745      585.7773249788725
0.019338238861906984      585.9253468041871
0.01951594600057618       586.102822246807
0.019693473885270874      586.3097513067323
0.019871180993697383      586.5461339839629
0.020049424722219357      586.811970278499
0.02022855925535152       587.1072601903402
0.0204089335301096        587.432003719487
0.02057978862980686       587.818550867046
0.020749585870478253      588.2071944792659
0.020918623449835097      588.5979345561469
0.021087203596881453      588.990771097689
0.021255631003112355      589.3857041038921
0.021424211188215206      589.7827335747562
0.021593248843479067      590.1818595102811
0.021763046197501558      590.5830819104671
0.02193390144739785       590.9864007753143
0.022104756600747556      591.5332696928257
0.02227455384962815       592.0547371534075
0.02244359139306247       592.5508031570603
0.022612171461619885      593.0214677037837
0.022780598748604386      593.4667307935781
0.022949178775739036      593.886592426443
0.02311821623655202       594.281052602379
0.023288013362055097      594.6501113213853
0.023458868351919994      594.9937685834626
0.02363924250270423       595.4058646688158
0.023818376913674867      595.7721932022773
0.023996620521453065      596.0927541838477
0.02417432751014825       596.3675476135267
0.02435185527571118       596.5965734913142
0.024529562295431146      596.7798318172104
0.02470780596507209       596.9173225912152
0.024886940468375387      597.0090458133285
0.025067314741423676      597.0550014835505
