% Model:              brazing.mph
% Version:            COMSOL 5.3.0.223
% Date:               Oct 23 2018, 11:06
% Dimension:          1
% Nodes:              145
% Expressions:        1
% Description:        Line graph
% x                       Height
0                         606.2242063479338
1.8037553861809572E-4     606.441494955706
3.5951128344368776E-4     606.612257358951
5.377561773732229E-4      606.736493557669
7.154644111300318E-4      606.8142035518597
8.929933875627798E-4      606.8453873415233
0.0010707015910786408     606.8300449266599
0.0012489464247083767     606.7681763072691
0.0014280820795340731     606.6597814833513
0.0016084574989771061     606.5048604549063
0.0017793134314883058     606.4377621746662
0.0019491114898538484     606.3488185699312
0.002118149876008701      606.2380296407013
0.0022867308232763497     606.1053953869764
0.002455159027530182      605.9509158087567
0.0026237400128558564     605.7745909060421
0.0027927784749207734     605.5764206788324
0.0029625766466419693     605.3564051271278
0.0031334327293582195     605.1145442509284
0.0033042867504275058     604.9376155726121
0.0034740828875811486     604.7574164815408
0.0036431193341009516     604.5739469777147
0.0038116983146850476     604.3872070611337
0.003980124516686077      604.1971967317979
0.004148703455848711      604.0039159897071
0.004317739819749776      603.8073648348615
0.004487535833529769      603.6075432672608
0.004658389691119368      603.4044512869053
0.0048387629974717405     603.2776201133553
0.005017896580971026      603.1591763462013
0.005196139373513023      603.0491199854441
0.0053738455543625        602.9474510310833
0.005551372514551955      602.8541694831188
0.005729078726427549      602.7692753415507
0.005907321580834967      602.6927686063789
0.006086455256670912      602.6246492776036
0.006266828685292636      602.5649173552248
0.0064472042239161545     602.6866585988306
0.0066263399687470585     602.8189909076453
0.00680458486268183       602.9619142816697
0.0069822930964438265     603.1154287209031
0.007159822072881748      603.2795342253457
0.007337530276402798      603.4542307949977
0.007515775110037768      603.6395184298589
0.007694910764868775      603.8353971299292
0.007875286184317232      604.041866895209
0.008046142116827224      604.2973672885414
0.008215940175191578      604.5469992819326
0.008384978561345261      604.7907628753828
0.008553559508611747      605.0286580688919
0.008721987712864422      605.2606848624598
0.008890568698188937      605.4868432560868
0.00905960716025268       605.7071332497724
0.009229405331972688      605.921554843517
0.009400261414687729      606.1301080373206
0.009571115435747398      606.4251275964538
0.009740911572891598      606.6935488838888
0.009909948019402086      606.9353718996258
0.010078526999976944      607.1505966436649
0.010246953201968763      607.3392231160061
0.010415532141122159      607.5012513166492
0.010584568505013912      607.6366812455943
0.010754364518784467      607.7455129028414
0.010925218376364454      607.8277462883906
0.011105591682722255      607.9795673689844
0.01128472526622686       608.0899568844216
0.011462968058774099      608.1589148347025
0.011640674239628768      608.1864412198269
0.011818201199823401      608.172536039795
0.01199590741170419       608.1171992946065
0.012174150266116847      608.0204309842618
0.012353283941958112      607.8822311087605
0.012533657370585264      607.7025996681028
0.01271403176453574       607.6463753120972
0.012893166387683227      607.5420577324337
0.013071410176518557      607.3896469291126
0.013249117315197753      607.1891429021338
0.013426645199902413      606.9405456514972
0.013604352308338922      606.643855177203
0.01378259603687098       606.299071479251
0.013961730570013379      605.9061945576412
0.014142104844781908      605.4652244123739
0.014312959944399205      605.0849089558341
0.014482757184992078      604.6830456044494
0.014651794764271453      604.2596343582203
0.014820374911240972      603.8146752171464
0.014988802317395246      603.3481681812278
0.01515738250242126       602.8601132504646
0.015326420157607648      602.3505104248566
0.015496217511551624      601.8193597044038
0.015667072761367945      601.2666610891066
0.01583792791479403       600.7678571743085
0.016007725163749622      600.2779909137662
0.01617676270725794       599.7970623074802
0.01634534277588875       599.3250713554503
0.016513770062946447      598.8620180576762
0.01668235009015449       598.4079024141585
0.016851387551041475      597.9627244248966
0.017021184676619543      597.5264840898908
0.017192039666560827      597.099181409141
0.017372413817338207      596.7346914306071
0.017551548228302124      596.3983120396803
0.017729791836073705      596.0900432363609
0.017907498824762332      595.8098850206487
0.018085026590318725      595.5578373925438
0.018262733610032132      595.333900352046
0.018440977279666457      595.1380738991554
0.018620111782963036      594.9703580338721
0.018800486056004474      594.830752756196
0.018980860449944497      594.894673764129
0.019159995073081745      594.9911380299725
0.019338238861906984      595.120145553727
0.01951594600057618       595.2816963353922
0.019693473885270874      595.4757903749681
0.019871180993697383      595.7024276724547
0.020049424722219357      595.961608227852
0.02022855925535152       596.2533320411601
0.0204089335301096        596.5775991123791
0.02057978862980686       596.9532580360606
0.020749585870478253      597.3346670278459
0.020918623449835097      597.7218260877354
0.021087203596881453      598.1147352157291
0.021255631003112355      598.5133944118265
0.021424211188215206      598.9178036760281
0.021593248843479067      599.3279630083337
0.021763046197501558      599.7438724087433
0.02193390144739785       600.165531877257
0.022104756600747556      600.6928853988654
0.02227455384962815       601.1977339065659
0.02244359139306247       601.6800774003589
0.022612171461619885      602.139915880244
0.022780598748604386      602.5772493462213
0.022949178775739036      602.9920777982911
0.02311821623655202       603.384401236453
0.023288013362055097      603.7542196607071
0.023458868351919994      604.1015330710535
0.02363924250270423       604.5050895886621
0.023818376913674867      604.8667201234485
0.023996620521453065      605.1864246754129
0.02417432751014825       605.4642032445553
0.02435185527571118       605.7000558308752
0.024529562295431146      605.8939824343731
0.02470780596507209       606.0459830550489
0.024886940468375387      606.1560576929023
0.025067314741423676      606.2242063479338
