% Model:              brazing.mph
% Version:            COMSOL 5.3.0.223
% Date:               Oct 23 2018, 10:33
% Dimension:          1
% Nodes:              145
% Expressions:        1
% Description:        Line graph
% x                       Height
0                         594.6177470477996
1.8037553861809572E-4     594.8790957856014
3.5951128344368776E-4     595.0863604553502
5.377561773732229E-4      595.2395410570467
7.154644111300318E-4      595.3386375906903
8.929933875627798E-4      595.3836500562812
0.0010707015910786408     595.3745784538195
0.0012489464247083767     595.3114227833049
0.0014280820795340731     595.1941830447377
0.0016084574989771061     595.0228592381178
0.0017793134314883058     594.9568478020111
0.0019491114898538484     594.8660832831129
0.002118149876008701      594.7505656814234
0.0022867308232763497     594.6102949969425
0.002455159027530182      594.4452712296701
0.0026237400128558564     594.2554943796063
0.0027927784749207734     594.040964446751
0.0029625766466419693     593.8016814311043
0.0031334327293582195     593.5376453326662
0.0033042867504275058     593.363674531948
0.0034740828875811486     593.1845337982683
0.0036431193341009516     593.0002231316273
0.0038116983146850476     592.810742532025
0.003980124516686077      592.6160919994613
0.004148703455848711      592.4162715339363
0.004317739819749776      592.2112811354499
0.004487535833529769      592.001120804002
0.004658389691119368      591.785790539593
0.0048387629974717405     591.6667184490689
0.005017896580971026      591.5523902410011
0.005196139373513023      591.4428059153902
0.0053738455543625        591.3379654722356
0.005551372514551955      591.2378689115376
0.005729078726427549      591.1425162332962
0.005907321580834967      591.0519074375111
0.006086455256670912      590.9660425241826
0.006266828685292636      590.8849214933107
0.0064472042239161545     591.0378317181724
0.0066263399687470585     591.1986355414165
0.00680458486268183       591.3673329630432
0.0069822930964438265     591.5439239830524
0.007159822072881748      591.7284086014442
0.007337530276402798      591.9207868182185
0.007515775110037768      592.1210586333752
0.007694910764868775      592.3292240469145
0.007875286184317232      592.5452830588364
0.008046142116827224      592.8213569393334
0.008215940175191578      593.088794450643
0.008384978561345261      593.3475955927655
0.008553559508611747      593.5977603657005
0.008721987712864422      593.8392887694483
0.008890568698188937      594.0721808040088
0.00905960716025268       594.2964364693818
0.009229405331972688      594.5120557655674
0.009400261414687729      594.7190386925658
0.009571115435747398      595.0432196097194
0.009740911572891598      595.3373129027724
0.009909948019402086      595.6013185717258
0.010078526999976944      595.8352366165788
0.010246953201968763      596.0390670373317
0.010415532141122159      596.2128098339846
0.010584568505013912      596.3564650065373
0.010754364518784467      596.4700325549898
0.010925218376364454      596.5535124793424
0.011105591682722255      596.7179389022266
0.01128472526622686       596.835908106249
0.011462968058774099      596.9074200914102
0.011640674239628768      596.9324748577101
0.011818201199823401      596.9110724051484
0.01199590741170419       596.8432127337255
0.012174150266116847      596.7288958434409
0.012353283941958112      596.5681217342949
0.012533657370585264      596.3608904062877
0.01271403176453574       596.3267098186265
0.012893166387683227      596.2380017002592
0.013071410176518557      596.0947660511864
0.013249117315197753      595.897002871408
0.013426645199902413      595.6447121609236
0.013604352308338922      595.3378939197335
0.01378259603687098       594.9765481478375
0.013961730570013379      594.5606748452358
0.014142104844781908      594.0902740119284
0.014312959944399205      593.6914213448304
0.014482757184992078      593.2681666381952
0.014651794764271453      592.8205098920234
0.014820374911240972      592.3484511063149
0.014988802317395246      591.8519902810694
0.01515738250242126       591.3311274162872
0.015326420157607648      590.785862511968
0.015496217511551624      590.2161955681121
0.015667072761367945      589.6221265847192
0.01583792791479403       589.1074019039102
0.016007725163749622      588.600083514381
0.01617676270725794       588.1001714161326
0.01634534277588875       587.6076656091643
0.016513770062946447      587.1225660934764
0.01668235009015449       586.6448728690688
0.016851387551041475      586.1745859359414
0.017021184676619543      585.7117052940941
0.017192039666560827      585.2562309435275
0.017372413817338207      584.8810020217421
0.017551548228302124      584.5311911584876
0.017729791836073705      584.2067983537645
0.017907498824762332      583.9078236075724
0.018085026590318725      583.6342669199114
0.018262733610032132      583.3861282907815
0.018440977279666457      583.1634077201828
0.018620111782963036      582.966105208115
0.018800486056004474      582.7942207545785
0.018980860449944497      582.8778126470535
0.019159995073081745      582.9924667791652
0.019338238861906984      583.138183150914
0.01951594600057618       583.3149617622998
0.019693473885270874      583.5228026133226
0.019871180993697383      583.7617057039823
0.020049424722219357      584.031671034279
0.02022855925535152       584.3326986042126
0.0204089335301096        584.6647884137833
0.02057978862980686       585.0603275915103
0.020749585870478253      585.4585633157824
0.020918623449835097      585.8594955866
0.021087203596881453      586.263124403963
0.021255631003112355      586.6694497678712
0.021424211188215206      587.0784716783248
0.021593248843479067      587.4901901353238
0.021763046197501558      587.9046051388681
0.02193390144739785       588.3217166889578
0.022104756600747556      588.8850198376012
0.02227455384962815       589.422568589868
0.02244359139306247       589.9343629457585
0.022612171461619885      590.4204029052725
0.022780598748604386      590.88068846841
0.022949178775739036      591.3152196351712
0.02311821623655202       591.7239964055556
0.023288013362055097      592.1070187795636
0.023458868351919994      592.4642867571954
0.02363924250270423       592.8906119576983
0.023818376913674867      593.2701741994811
0.023996620521453065      593.6029734825439
0.02417432751014825       593.8890098068866
0.02435185527571118       594.1282831725093
0.024529562295431146      594.320793579412
0.02470780596507209       594.4665410275946
0.024886940468375387      594.5655255170572
0.025067314741423676      594.6177470477996
