% Model:              brazing.mph
% Version:            COMSOL 5.3.0.223
% Date:               Oct 23 2018, 11:33
% Table:              Table 3 - 
% Time (s)               Temperature (Cp_Al = 900, k_Al = 160, sigma_Al = 3.774E7, rho_Al = 2700, Cp_inlet = 900, k_inlet = 160, sigma_inlet = 3.774E7, rho_inlet = 2700, Cp_outlet = 900, k_outlet = 160, sigma_outlet = 3.774E7, rho_outlet = 2700, Cp_outlet_sleeve = 900, k_outlet_sleeve = 160, sigma_outlet_sleeve = 3.774E7, rho_outlet_sleeve = 2700, Cp_inlet_sleeve = 900, k_inlet_sleeve = 160, sigma_inlet_sleeve = 3.774E7, rho_inlet_sleeve = 3942) (degC), Point: 55Temperature (Cp_Al = 900, k_Al = 160, sigma_Al = 3.774E7, rho_Al = 2700, Cp_inlet = 900, k_inlet = 160, sigma_inlet = 3.774E7, rho_inlet = 2700, Cp_outlet = 900, k_outlet = 160, sigma_outlet = 3.774E7, rho_outlet = 2700, Cp_outlet_sleeve = 900, k_outlet_sleeve = 160, sigma_outlet_sleeve = 3.774E7, rho_outlet_sleeve = 2700, Cp_inlet_sleeve = 900, k_inlet_sleeve = 160, sigma_inlet_sleeve = 3.774E7, rho_inlet_sleeve = 3942) (degC), Point: 56Temperature (Cp_Al = 900, k_Al = 160, sigma_Al = 3.774E7, rho_Al = 2700, Cp_inlet = 900, k_inlet = 160, sigma_inlet = 3.774E7, rho_inlet = 2700, Cp_outlet = 900, k_outlet = 160, sigma_outlet = 3.774E7, rho_outlet = 2700, Cp_outlet_sleeve = 900, k_outlet_sleeve = 160, sigma_outlet_sleeve = 3.774E7, rho_outlet_sleeve = 2700, Cp_inlet_sleeve = 900, k_inlet_sleeve = 160, sigma_inlet_sleeve = 3.774E7, rho_inlet_sleeve = 3942) (degC), Point: 60Temperature (Cp_Al = 900, k_Al = 160, sigma_Al = 3.774E7, rho_Al = 2700, Cp_inlet = 900, k_inlet = 160, sigma_inlet = 3.774E7, rho_inlet = 2700, Cp_outlet = 900, k_outlet = 160, sigma_outlet = 3.774E7, rho_outlet = 2700, Cp_outlet_sleeve = 900, k_outlet_sleeve = 160, sigma_outlet_sleeve = 3.774E7, rho_outlet_sleeve = 2700, Cp_inlet_sleeve = 900, k_inlet_sleeve = 160, sigma_inlet_sleeve = 3.774E7, rho_inlet_sleeve = 3942) (degC), Point: 69Temperature (Cp_Al = 900, k_Al = 160, sigma_Al = 3.774E7, rho_Al = 2700, Cp_inlet = 900, k_inlet = 160, sigma_inlet = 3.774E7, rho_inlet = 2700, Cp_outlet = 900, k_outlet = 160, sigma_outlet = 3.774E7, rho_outlet = 2700, Cp_outlet_sleeve = 900, k_outlet_sleeve = 160, sigma_outlet_sleeve = 3.774E7, rho_outlet_sleeve = 2700, Cp_inlet_sleeve = 900, k_inlet_sleeve = 160, sigma_inlet_sleeve = 3.774E7, rho_inlet_sleeve = 3942) (degC), Point: 90Temperature (Cp_Al = 900, k_Al = 160, sigma_Al = 3.774E7, rho_Al = 2700, Cp_inlet = 900, k_inlet = 160, sigma_inlet = 3.774E7, rho_inlet = 2700, Cp_outlet = 900, k_outlet = 160, sigma_outlet = 3.774E7, rho_outlet = 2700, Cp_outlet_sleeve = 900, k_outlet_sleeve = 160, sigma_outlet_sleeve = 3.774E7, rho_outlet_sleeve = 2700, Cp_inlet_sleeve = 900, k_inlet_sleeve = 160, sigma_inlet_sleeve = 3.774E7, rho_inlet_sleeve = 3942) (degC), Point: 98Temperature (Cp_Al = 900, k_Al = 160, sigma_Al = 3.774E7, rho_Al = 2700, Cp_inlet = 900, k_inlet = 160, sigma_inlet = 3.774E7, rho_inlet = 2700, Cp_outlet = 900, k_outlet = 160, sigma_outlet = 3.774E7, rho_outlet = 2700, Cp_outlet_sleeve = 900, k_outlet_sleeve = 160, sigma_outlet_sleeve = 3.774E7, rho_outlet_sleeve = 2700, Cp_inlet_sleeve = 900, k_inlet_sleeve = 160, sigma_inlet_sleeve = 3.774E7, rho_inlet_sleeve = 3942) (degC), Point: 102Temperature (Cp_Al = 900, k_Al = 160, sigma_Al = 3.774E7, rho_Al = 2700, Cp_inlet = 900, k_inlet = 160, sigma_inlet = 3.774E7, rho_inlet = 2700, Cp_outlet = 900, k_outlet = 160, sigma_outlet = 3.774E7, rho_outlet = 2700, Cp_outlet_sleeve = 900, k_outlet_sleeve = 160, sigma_outlet_sleeve = 3.774E7, rho_outlet_sleeve = 2700, Cp_inlet_sleeve = 900, k_inlet_sleeve = 160, sigma_inlet_sleeve = 3.774E7, rho_inlet_sleeve = 3942) (degC), Point: 127Temperature (Cp_Al = 900, k_Al = 160, sigma_Al = 3.774E7, rho_Al = 2700, Cp_inlet = 900, k_inlet = 160, sigma_inlet = 3.774E7, rho_inlet = 2700, Cp_outlet = 900, k_outlet = 160, sigma_outlet = 3.774E7, rho_outlet = 2700, Cp_outlet_sleeve = 900, k_outlet_sleeve = 160, sigma_outlet_sleeve = 3.774E7, rho_outlet_sleeve = 2700, Cp_inlet_sleeve = 900, k_inlet_sleeve = 160, sigma_inlet_sleeve = 3.774E7, rho_inlet_sleeve = 3942) (degC), Point: 128Temperature (Cp_Al = 900, k_Al = 160, sigma_Al = 3.774E7, rho_Al = 2700, Cp_inlet = 900, k_inlet = 160, sigma_inlet = 3.774E7, rho_inlet = 2700, Cp_outlet = 900, k_outlet = 160, sigma_outlet = 3.774E7, rho_outlet = 2700, Cp_outlet_sleeve = 900, k_outlet_sleeve = 160, sigma_outlet_sleeve = 3.774E7, rho_outlet_sleeve = 2700, Cp_inlet_sleeve = 900, k_inlet_sleeve = 160, sigma_inlet_sleeve = 3.774E7, rho_inlet_sleeve = 3942) (degC), Point: 134Temperature (Cp_Al = 900, k_Al = 160, sigma_Al = 3.774E7, rho_Al = 2700, Cp_inlet = 900, k_inlet = 160, sigma_inlet = 3.774E7, rho_inlet = 2700, Cp_outlet = 900, k_outlet = 160, sigma_outlet = 3.774E7, rho_outlet = 2700, Cp_outlet_sleeve = 900, k_outlet_sleeve = 160, sigma_outlet_sleeve = 3.774E7, rho_outlet_sleeve = 2700, Cp_inlet_sleeve = 900, k_inlet_sleeve = 160, sigma_inlet_sleeve = 3.774E7, rho_inlet_sleeve = 3942) (degC), Point: 138Temperature (Cp_Al = 900, k_Al = 160, sigma_Al = 3.774E7, rho_Al = 2700, Cp_inlet = 900, k_inlet = 160, sigma_inlet = 3.774E7, rho_inlet = 2700, Cp_outlet = 900, k_outlet = 160, sigma_outlet = 3.774E7, rho_outlet = 2700, Cp_outlet_sleeve = 900, k_outlet_sleeve = 160, sigma_outlet_sleeve = 3.774E7, rho_outlet_sleeve = 2700, Cp_inlet_sleeve = 900, k_inlet_sleeve = 160, sigma_inlet_sleeve = 3.774E7, rho_inlet_sleeve = 3942) (degC), Point: 151Temperature (Cp_Al = 900, k_Al = 160, sigma_Al = 3.774E7, rho_Al = 2700, Cp_inlet = 900, k_inlet = 160, sigma_inlet = 3.774E7, rho_inlet = 2700, Cp_outlet = 900, k_outlet = 160, sigma_outlet = 3.774E7, rho_outlet = 2700, Cp_outlet_sleeve = 900, k_outlet_sleeve = 160, sigma_outlet_sleeve = 3.774E7, rho_outlet_sleeve = 2700, Cp_inlet_sleeve = 900, k_inlet_sleeve = 160, sigma_inlet_sleeve = 3.774E7, rho_inlet_sleeve = 3942) (degC), Point: 154Temperature (Cp_Al = 900, k_Al = 160, sigma_Al = 3.774E7, rho_Al = 2700, Cp_inlet = 900, k_inlet = 160, sigma_inlet = 3.774E7, rho_inlet = 2700, Cp_outlet = 900, k_outlet = 160, sigma_outlet = 3.774E7, rho_outlet = 2700, Cp_outlet_sleeve = 900, k_outlet_sleeve = 160, sigma_outlet_sleeve = 3.774E7, rho_outlet_sleeve = 2700, Cp_inlet_sleeve = 900, k_inlet_sleeve = 160, sigma_inlet_sleeve = 3.774E7, rho_inlet_sleeve = 3942) (degC), Point: 159Temperature (Cp_Al = 900, k_Al = 160, sigma_Al = 3.774E7, rho_Al = 2700, Cp_inlet = 900, k_inlet = 160, sigma_inlet = 3.774E7, rho_inlet = 2700, Cp_outlet = 900, k_outlet = 160, sigma_outlet = 3.774E7, rho_outlet = 2700, Cp_outlet_sleeve = 900, k_outlet_sleeve = 160, sigma_outlet_sleeve = 3.774E7, rho_outlet_sleeve = 2700, Cp_inlet_sleeve = 900, k_inlet_sleeve = 160, sigma_inlet_sleeve = 3.774E7, rho_inlet_sleeve = 3942) (degC), Point: 163Temperature (Cp_Al = 900, k_Al = 160, sigma_Al = 3.774E7, rho_Al = 2700, Cp_inlet = 900, k_inlet = 160, sigma_inlet = 3.774E7, rho_inlet = 2700, Cp_outlet = 900, k_outlet = 160, sigma_outlet = 3.774E7, rho_outlet = 2700, Cp_outlet_sleeve = 900, k_outlet_sleeve = 160, sigma_outlet_sleeve = 3.774E7, rho_outlet_sleeve = 2700, Cp_inlet_sleeve = 900, k_inlet_sleeve = 160, sigma_inlet_sleeve = 3.774E7, rho_inlet_sleeve = 3942) (degC), Point: 167Temperature (Cp_Al = 900, k_Al = 160, sigma_Al = 3.774E7, rho_Al = 2700, Cp_inlet = 900, k_inlet = 160, sigma_inlet = 3.774E7, rho_inlet = 2700, Cp_outlet = 900, k_outlet = 160, sigma_outlet = 3.774E7, rho_outlet = 2700, Cp_outlet_sleeve = 900, k_outlet_sleeve = 160, sigma_outlet_sleeve = 3.774E7, rho_outlet_sleeve = 2700, Cp_inlet_sleeve = 900, k_inlet_sleeve = 160, sigma_inlet_sleeve = 3.774E7, rho_inlet_sleeve = 3942) (degC), Point: 168Temperature (Cp_Al = 900, k_Al = 160, sigma_Al = 3.774E7, rho_Al = 2700, Cp_inlet = 900, k_inlet = 160, sigma_inlet = 3.774E7, rho_inlet = 2700, Cp_outlet = 900, k_outlet = 160, sigma_outlet = 3.774E7, rho_outlet = 2700, Cp_outlet_sleeve = 900, k_outlet_sleeve = 160, sigma_outlet_sleeve = 3.774E7, rho_outlet_sleeve = 2700, Cp_inlet_sleeve = 900, k_inlet_sleeve = 160, sigma_inlet_sleeve = 3.774E7, rho_inlet_sleeve = 3942) (degC), Point: 172Temperature (Cp_Al = 900, k_Al = 160, sigma_Al = 3.774E7, rho_Al = 2700, Cp_inlet = 900, k_inlet = 160, sigma_inlet = 3.774E7, rho_inlet = 2700, Cp_outlet = 900, k_outlet = 160, sigma_outlet = 3.774E7, rho_outlet = 2700, Cp_outlet_sleeve = 900, k_outlet_sleeve = 160, sigma_outlet_sleeve = 3.774E7, rho_outlet_sleeve = 2700, Cp_inlet_sleeve = 900, k_inlet_sleeve = 160, sigma_inlet_sleeve = 3.774E7, rho_inlet_sleeve = 3942) (degC), Point: 181Temperature (Cp_Al = 900, k_Al = 160, sigma_Al = 3.774E7, rho_Al = 2700, Cp_inlet = 900, k_inlet = 160, sigma_inlet = 3.774E7, rho_inlet = 2700, Cp_outlet = 900, k_outlet = 160, sigma_outlet = 3.774E7, rho_outlet = 2700, Cp_outlet_sleeve = 900, k_outlet_sleeve = 160, sigma_outlet_sleeve = 3.774E7, rho_outlet_sleeve = 2700, Cp_inlet_sleeve = 900, k_inlet_sleeve = 160, sigma_inlet_sleeve = 3.774E7, rho_inlet_sleeve = 3942) (degC), Point: 201Temperature (Cp_Al = 900, k_Al = 160, sigma_Al = 3.774E7, rho_Al = 2700, Cp_inlet = 900, k_inlet = 160, sigma_inlet = 3.774E7, rho_inlet = 2700, Cp_outlet = 900, k_outlet = 160, sigma_outlet = 3.774E7, rho_outlet = 2700, Cp_outlet_sleeve = 900, k_outlet_sleeve = 160, sigma_outlet_sleeve = 3.774E7, rho_outlet_sleeve = 2700, Cp_inlet_sleeve = 900, k_inlet_sleeve = 160, sigma_inlet_sleeve = 3.774E7, rho_inlet_sleeve = 3942) (degC), Point: 210Temperature (Cp_Al = 900, k_Al = 160, sigma_Al = 3.774E7, rho_Al = 2700, Cp_inlet = 900, k_inlet = 160, sigma_inlet = 3.774E7, rho_inlet = 2700, Cp_outlet = 900, k_outlet = 160, sigma_outlet = 3.774E7, rho_outlet = 2700, Cp_outlet_sleeve = 900, k_outlet_sleeve = 160, sigma_outlet_sleeve = 3.774E7, rho_outlet_sleeve = 2700, Cp_inlet_sleeve = 900, k_inlet_sleeve = 160, sigma_inlet_sleeve = 3.774E7, rho_inlet_sleeve = 3942) (degC), Point: 213Temperature (Cp_Al = 900, k_Al = 160, sigma_Al = 3.774E7, rho_Al = 2700, Cp_inlet = 900, k_inlet = 160, sigma_inlet = 3.774E7, rho_inlet = 2700, Cp_outlet = 900, k_outlet = 160, sigma_outlet = 3.774E7, rho_outlet = 2700, Cp_outlet_sleeve = 900, k_outlet_sleeve = 160, sigma_outlet_sleeve = 3.774E7, rho_outlet_sleeve = 2700, Cp_inlet_sleeve = 900, k_inlet_sleeve = 160, sigma_inlet_sleeve = 3.774E7, rho_inlet_sleeve = 3942) (degC), Point: 215Temperature (Cp_Al = 900, k_Al = 160, sigma_Al = 3.774E7, rho_Al = 2700, Cp_inlet = 900, k_inlet = 160, sigma_inlet = 3.774E7, rho_inlet = 2700, Cp_outlet = 900, k_outlet = 160, sigma_outlet = 3.774E7, rho_outlet = 2700, Cp_outlet_sleeve = 900, k_outlet_sleeve = 160, sigma_outlet_sleeve = 3.774E7, rho_outlet_sleeve = 2700, Cp_inlet_sleeve = 900, k_inlet_sleeve = 160, sigma_inlet_sleeve = 3.774E7, rho_inlet_sleeve = 3942) (degC), Point: 229Temperature (Cp_Al = 900, k_Al = 160, sigma_Al = 3.774E7, rho_Al = 2700, Cp_inlet = 900, k_inlet = 160, sigma_inlet = 3.774E7, rho_inlet = 2700, Cp_outlet = 900, k_outlet = 160, sigma_outlet = 3.774E7, rho_outlet = 2700, Cp_outlet_sleeve = 900, k_outlet_sleeve = 160, sigma_outlet_sleeve = 3.774E7, rho_outlet_sleeve = 2700, Cp_inlet_sleeve = 900, k_inlet_sleeve = 160, sigma_inlet_sleeve = 3.774E7, rho_inlet_sleeve = 3942) (degC), Point: 232Temperature (Cp_Al = 900, k_Al = 160, sigma_Al = 3.774E7, rho_Al = 2700, Cp_inlet = 900, k_inlet = 160, sigma_inlet = 3.774E7, rho_inlet = 2700, Cp_outlet = 900, k_outlet = 160, sigma_outlet = 3.774E7, rho_outlet = 2700, Cp_outlet_sleeve = 900, k_outlet_sleeve = 160, sigma_outlet_sleeve = 3.774E7, rho_outlet_sleeve = 2700, Cp_inlet_sleeve = 900, k_inlet_sleeve = 160, sigma_inlet_sleeve = 3.774E7, rho_inlet_sleeve = 3942) (degC), Point: 239Temperature (Cp_Al = 900, k_Al = 160, sigma_Al = 3.774E7, rho_Al = 2700, Cp_inlet = 900, k_inlet = 160, sigma_inlet = 3.774E7, rho_inlet = 2700, Cp_outlet = 900, k_outlet = 160, sigma_outlet = 3.774E7, rho_outlet = 2700, Cp_outlet_sleeve = 900, k_outlet_sleeve = 160, sigma_outlet_sleeve = 3.774E7, rho_outlet_sleeve = 2700, Cp_inlet_sleeve = 900, k_inlet_sleeve = 160, sigma_inlet_sleeve = 3.774E7, rho_inlet_sleeve = 3942) (degC), Point: 252Temperature (Cp_Al = 900, k_Al = 160, sigma_Al = 3.774E7, rho_Al = 2700, Cp_inlet = 900, k_inlet = 160, sigma_inlet = 3.774E7, rho_inlet = 2700, Cp_outlet = 900, k_outlet = 160, sigma_outlet = 3.774E7, rho_outlet = 2700, Cp_outlet_sleeve = 900, k_outlet_sleeve = 160, sigma_outlet_sleeve = 3.774E7, rho_outlet_sleeve = 2700, Cp_inlet_sleeve = 900, k_inlet_sleeve = 160, sigma_inlet_sleeve = 3.774E7, rho_inlet_sleeve = 3942) (degC), Point: 261Temperature (Cp_Al = 900, k_Al = 160, sigma_Al = 3.774E7, rho_Al = 2700, Cp_inlet = 900, k_inlet = 160, sigma_inlet = 3.774E7, rho_inlet = 2700, Cp_outlet = 900, k_outlet = 160, sigma_outlet = 3.774E7, rho_outlet = 2700, Cp_outlet_sleeve = 900, k_outlet_sleeve = 160, sigma_outlet_sleeve = 3.774E7, rho_outlet_sleeve = 2700, Cp_inlet_sleeve = 900, k_inlet_sleeve = 160, sigma_inlet_sleeve = 3.774E7, rho_inlet_sleeve = 3942) (degC), Point: 270Temperature (Cp_Al = 900, k_Al = 160, sigma_Al = 3.774E7, rho_Al = 2700, Cp_inlet = 900, k_inlet = 160, sigma_inlet = 3.774E7, rho_inlet = 2700, Cp_outlet = 900, k_outlet = 160, sigma_outlet = 3.774E7, rho_outlet = 2700, Cp_outlet_sleeve = 900, k_outlet_sleeve = 160, sigma_outlet_sleeve = 3.774E7, rho_outlet_sleeve = 2700, Cp_inlet_sleeve = 900, k_inlet_sleeve = 160, sigma_inlet_sleeve = 3.774E7, rho_inlet_sleeve = 3942) (degC), Point: 273Temperature (Cp_Al = 900, k_Al = 160, sigma_Al = 3.774E7, rho_Al = 2700, Cp_inlet = 900, k_inlet = 160, sigma_inlet = 3.774E7, rho_inlet = 2700, Cp_outlet = 900, k_outlet = 160, sigma_outlet = 3.774E7, rho_outlet = 2700, Cp_outlet_sleeve = 900, k_outlet_sleeve = 160, sigma_outlet_sleeve = 3.774E7, rho_outlet_sleeve = 2700, Cp_inlet_sleeve = 900, k_inlet_sleeve = 160, sigma_inlet_sleeve = 3.774E7, rho_inlet_sleeve = 3942) (degC), Point: 275
0                        21.58193547757213        21.010958855858348       21.130947872117588       21.008031610281932       21.009463064261126       21.108303620205163       21.00818951687296        21.01703230567955        21.00100263754956        21.02457772291615        21.001154547236354       21.00060471514962        21.009558698521175       21.00008665486547        21.005056205104893       21.019001716792843       21.00005204796463        21.01145450677683        21.000677234728073       21.000275634394768       21.001755265429722       21.00015593805398        21.00023874448351        21.008188155858136       21.118825578359235       21.009092899925577       21.364257047457556       21.007924257305206       21.143725915193727       21.01406076484085        21.64748497322256
3                        289.09541138211705       254.2513608063606        263.4815988275385        258.7809557021037        226.4885524457265        239.58733675449412       238.02087943482144       225.36016030035182       220.99913939018148       232.29763252647973       234.483912460691         226.34000841744194       223.50143691044855       210.40121679736563       214.87828124360965       222.1764392934329        217.76931935963506       226.6162919615241        228.05119477170223       221.95697936148315       221.05337964163198       214.5470022454885        217.17185145841944       240.06079142191368       242.0704781240728        228.1140065952228        260.36383853419375       260.66122060520627       265.6310867451331        253.9168870983907        293.71926317108284
6                        409.3602683237359        373.061400734249         385.66732526323176       381.5693621282851        346.64086429498093       363.51334316822295       362.67174649685114       347.17157220678723       341.0092890303647        356.1302534980391        359.04667271863536       350.8760575961169        347.31025559398336       330.3801186216855        336.65419457055395       341.3595832895014        335.4307443415248        347.82505748602284       349.8956890406496        343.6402103539896        342.15971140452314       332.2814376824675        336.3717674540611        364.5149206390756        365.77854123014856       347.9490779282861        382.01918728625174       381.27964256778955       385.6336445455414        370.32585946389054       411.6848739597001
9                        481.6746892864426        444.47155344957605       459.64734150700406       456.22924981324275       419.9299333519292        439.6078710692061        439.4907381721597        421.4748790024081        414.20337418749887       432.16515881911164       435.80999884695666       427.63660966602276       423.34395363977467       403.57002105636684       410.9475413380135        412.8549440431341        405.9800321654303        421.06042626065175       423.83674619630096       417.6838228015091        415.5290222207474        403.0563921783439        408.06410754863566       441.2268117115351        441.7461129966023        421.04301041146687       456.2332973254935        454.5773505128036        458.22992831004285       440.1827875176632        482.5176518006923
12                       530.8536850209172        493.03842337242327       510.1419509513164        507.30558096258824       469.2999044844007        491.06643944434336       491.5626326917709        471.5214996844876        463.51694716031886       483.5903246863536        487.8508022180828        479.6692028453657        474.7605427175855        452.8689561525049        460.97501671358646       461.5526132634684        454.0376861228086        471.12574312682545       474.50323087740264       468.40043256681895       465.6579739191949        451.22076379535554       456.85309300961455       493.23438428959116       493.123930519336         470.2847204712166        506.2149624483736        504.86835369442974       507.9128423162382        487.8013659990545        530.7999740656394
15                       568.0749025159445        529.8102952100496        548.4161144132239        546.0630879936163        505.9664038127304        529.3190598250037        530.3124111915707        508.6667475076823        500.1447048895923        521.8205735675689        526.5798616700512        518.395222551558         512.9872242762885        489.4885099108943        498.10836525075683       498.46941710244676       490.48567186570597       509.1333946382575        513.0091898742979        506.95750526656707       503.72115358199494       487.74277518465135       493.835422061263         531.9446718854591        531.323948649768         506.86488612891003       543.3170243635541        543.1640275224478        545.6988148162436        523.9741333611265        567.4606714940118
18                       598.1664699065354        559.5536034250515        579.3770280814621        577.4329488922976        534.9917262346912        559.5842286768205        560.9842630900285        538.046638132745         529.1426679076575        552.0703850286944        557.2375675090816        549.0527737313561        543.2363263803953        518.4822687489304        527.4809250235041        528.3565231657108        520.0103221691057        539.9188010062427        544.215528799231         538.2226097261628        534.5653277194828        517.3326903883625        523.7828210298214        562.5921925509676        561.554214219356         535.8307708434538        572.6676467254566        574.2593918206335        576.3605485247571        553.3272004871147        597.191574310736
21                       623.6974604337773        584.8035226673362        605.6446016521068        604.0530134853879        559.1434144890393        584.734314991834         586.4736314856997        562.471365342168         553.274696231234         577.2097961214434        582.7171580782107        574.5337708900869        568.3766047575139        542.6124882594789        551.9011361969071        553.7454033356681        545.1074924859121        566.0669941155066        570.7260085307418        564.7949230107845        560.7732454811975        542.4901730779354        549.228903527869         588.0668682475548        586.6809362012585        559.9409143826983        597.072235981438         600.7181626439547        602.4445303419645        578.3184914150053        622.4869111390749
24                       646.291778699001         607.1627398069639        628.8758270669015        627.592323043693         580.2074471800161        606.627968925535         608.6565125168123        583.7548327376245        574.3242530842705        599.0958693879126        604.8931320461131        596.7119610558791        590.2643959561674        563.6616770359411        573.181847043774         576.237044904196         567.3558442191529        589.2137853289282        594.1889994139722        588.3188319211564        583.9780256286483        564.7945470012439        571.7744041322906        610.241111302409         608.5587049518742        580.9752849432394        618.3415621550604        624.1631807151533        625.5618081194189        600.5017178072964        644.9233326427269
27                       666.8959825346096        627.5656986157788        650.0372115254487        649.0249526011236        599.2528881034324        626.3801375353725        628.6595335939394        602.982831221454         593.3587993081911        618.8425526876699        624.8911783601164        616.7125766755277        610.0131983996114        582.6966775973675        592.4081690593398        596.7645409240531        587.6756543410628        610.3133407558367        615.5665851508041        609.7539648233029        605.1320172776504        585.1658988701984        592.3517830529554        630.2393269637664        628.2999141260087        599.9991045270045        637.5594152785224        645.5415565318349        646.6518467811619        620.781814607069         665.4191077064546
