% Model:              brazing.mph
% Version:            COMSOL 5.3.0.223
% Date:               Oct 23 2018, 11:42
% Table:              Table 3 - 
% Time (s)               Temperature (Cp_Al = 900, k_Al = 160, sigma_Al = 3.774E7, rho_Al = 2700, Cp_inlet = 900, k_inlet = 160, sigma_inlet = 3.774E7, rho_inlet = 2700, Cp_outlet = 900, k_outlet = 233.6, sigma_outlet = 3.774E7, rho_outlet = 2700, Cp_outlet_sleeve = 900, k_outlet_sleeve = 160, sigma_outlet_sleeve = 3.774E7, rho_outlet_sleeve = 2700, Cp_inlet_sleeve = 900, k_inlet_sleeve = 160, sigma_inlet_sleeve = 3.774E7, rho_inlet_sleeve = 2700) (degC), Point: 55Temperature (Cp_Al = 900, k_Al = 160, sigma_Al = 3.774E7, rho_Al = 2700, Cp_inlet = 900, k_inlet = 160, sigma_inlet = 3.774E7, rho_inlet = 2700, Cp_outlet = 900, k_outlet = 233.6, sigma_outlet = 3.774E7, rho_outlet = 2700, Cp_outlet_sleeve = 900, k_outlet_sleeve = 160, sigma_outlet_sleeve = 3.774E7, rho_outlet_sleeve = 2700, Cp_inlet_sleeve = 900, k_inlet_sleeve = 160, sigma_inlet_sleeve = 3.774E7, rho_inlet_sleeve = 2700) (degC), Point: 56Temperature (Cp_Al = 900, k_Al = 160, sigma_Al = 3.774E7, rho_Al = 2700, Cp_inlet = 900, k_inlet = 160, sigma_inlet = 3.774E7, rho_inlet = 2700, Cp_outlet = 900, k_outlet = 233.6, sigma_outlet = 3.774E7, rho_outlet = 2700, Cp_outlet_sleeve = 900, k_outlet_sleeve = 160, sigma_outlet_sleeve = 3.774E7, rho_outlet_sleeve = 2700, Cp_inlet_sleeve = 900, k_inlet_sleeve = 160, sigma_inlet_sleeve = 3.774E7, rho_inlet_sleeve = 2700) (degC), Point: 60Temperature (Cp_Al = 900, k_Al = 160, sigma_Al = 3.774E7, rho_Al = 2700, Cp_inlet = 900, k_inlet = 160, sigma_inlet = 3.774E7, rho_inlet = 2700, Cp_outlet = 900, k_outlet = 233.6, sigma_outlet = 3.774E7, rho_outlet = 2700, Cp_outlet_sleeve = 900, k_outlet_sleeve = 160, sigma_outlet_sleeve = 3.774E7, rho_outlet_sleeve = 2700, Cp_inlet_sleeve = 900, k_inlet_sleeve = 160, sigma_inlet_sleeve = 3.774E7, rho_inlet_sleeve = 2700) (degC), Point: 69Temperature (Cp_Al = 900, k_Al = 160, sigma_Al = 3.774E7, rho_Al = 2700, Cp_inlet = 900, k_inlet = 160, sigma_inlet = 3.774E7, rho_inlet = 2700, Cp_outlet = 900, k_outlet = 233.6, sigma_outlet = 3.774E7, rho_outlet = 2700, Cp_outlet_sleeve = 900, k_outlet_sleeve = 160, sigma_outlet_sleeve = 3.774E7, rho_outlet_sleeve = 2700, Cp_inlet_sleeve = 900, k_inlet_sleeve = 160, sigma_inlet_sleeve = 3.774E7, rho_inlet_sleeve = 2700) (degC), Point: 90Temperature (Cp_Al = 900, k_Al = 160, sigma_Al = 3.774E7, rho_Al = 2700, Cp_inlet = 900, k_inlet = 160, sigma_inlet = 3.774E7, rho_inlet = 2700, Cp_outlet = 900, k_outlet = 233.6, sigma_outlet = 3.774E7, rho_outlet = 2700, Cp_outlet_sleeve = 900, k_outlet_sleeve = 160, sigma_outlet_sleeve = 3.774E7, rho_outlet_sleeve = 2700, Cp_inlet_sleeve = 900, k_inlet_sleeve = 160, sigma_inlet_sleeve = 3.774E7, rho_inlet_sleeve = 2700) (degC), Point: 98Temperature (Cp_Al = 900, k_Al = 160, sigma_Al = 3.774E7, rho_Al = 2700, Cp_inlet = 900, k_inlet = 160, sigma_inlet = 3.774E7, rho_inlet = 2700, Cp_outlet = 900, k_outlet = 233.6, sigma_outlet = 3.774E7, rho_outlet = 2700, Cp_outlet_sleeve = 900, k_outlet_sleeve = 160, sigma_outlet_sleeve = 3.774E7, rho_outlet_sleeve = 2700, Cp_inlet_sleeve = 900, k_inlet_sleeve = 160, sigma_inlet_sleeve = 3.774E7, rho_inlet_sleeve = 2700) (degC), Point: 102Temperature (Cp_Al = 900, k_Al = 160, sigma_Al = 3.774E7, rho_Al = 2700, Cp_inlet = 900, k_inlet = 160, sigma_inlet = 3.774E7, rho_inlet = 2700, Cp_outlet = 900, k_outlet = 233.6, sigma_outlet = 3.774E7, rho_outlet = 2700, Cp_outlet_sleeve = 900, k_outlet_sleeve = 160, sigma_outlet_sleeve = 3.774E7, rho_outlet_sleeve = 2700, Cp_inlet_sleeve = 900, k_inlet_sleeve = 160, sigma_inlet_sleeve = 3.774E7, rho_inlet_sleeve = 2700) (degC), Point: 127Temperature (Cp_Al = 900, k_Al = 160, sigma_Al = 3.774E7, rho_Al = 2700, Cp_inlet = 900, k_inlet = 160, sigma_inlet = 3.774E7, rho_inlet = 2700, Cp_outlet = 900, k_outlet = 233.6, sigma_outlet = 3.774E7, rho_outlet = 2700, Cp_outlet_sleeve = 900, k_outlet_sleeve = 160, sigma_outlet_sleeve = 3.774E7, rho_outlet_sleeve = 2700, Cp_inlet_sleeve = 900, k_inlet_sleeve = 160, sigma_inlet_sleeve = 3.774E7, rho_inlet_sleeve = 2700) (degC), Point: 128Temperature (Cp_Al = 900, k_Al = 160, sigma_Al = 3.774E7, rho_Al = 2700, Cp_inlet = 900, k_inlet = 160, sigma_inlet = 3.774E7, rho_inlet = 2700, Cp_outlet = 900, k_outlet = 233.6, sigma_outlet = 3.774E7, rho_outlet = 2700, Cp_outlet_sleeve = 900, k_outlet_sleeve = 160, sigma_outlet_sleeve = 3.774E7, rho_outlet_sleeve = 2700, Cp_inlet_sleeve = 900, k_inlet_sleeve = 160, sigma_inlet_sleeve = 3.774E7, rho_inlet_sleeve = 2700) (degC), Point: 134Temperature (Cp_Al = 900, k_Al = 160, sigma_Al = 3.774E7, rho_Al = 2700, Cp_inlet = 900, k_inlet = 160, sigma_inlet = 3.774E7, rho_inlet = 2700, Cp_outlet = 900, k_outlet = 233.6, sigma_outlet = 3.774E7, rho_outlet = 2700, Cp_outlet_sleeve = 900, k_outlet_sleeve = 160, sigma_outlet_sleeve = 3.774E7, rho_outlet_sleeve = 2700, Cp_inlet_sleeve = 900, k_inlet_sleeve = 160, sigma_inlet_sleeve = 3.774E7, rho_inlet_sleeve = 2700) (degC), Point: 138Temperature (Cp_Al = 900, k_Al = 160, sigma_Al = 3.774E7, rho_Al = 2700, Cp_inlet = 900, k_inlet = 160, sigma_inlet = 3.774E7, rho_inlet = 2700, Cp_outlet = 900, k_outlet = 233.6, sigma_outlet = 3.774E7, rho_outlet = 2700, Cp_outlet_sleeve = 900, k_outlet_sleeve = 160, sigma_outlet_sleeve = 3.774E7, rho_outlet_sleeve = 2700, Cp_inlet_sleeve = 900, k_inlet_sleeve = 160, sigma_inlet_sleeve = 3.774E7, rho_inlet_sleeve = 2700) (degC), Point: 151Temperature (Cp_Al = 900, k_Al = 160, sigma_Al = 3.774E7, rho_Al = 2700, Cp_inlet = 900, k_inlet = 160, sigma_inlet = 3.774E7, rho_inlet = 2700, Cp_outlet = 900, k_outlet = 233.6, sigma_outlet = 3.774E7, rho_outlet = 2700, Cp_outlet_sleeve = 900, k_outlet_sleeve = 160, sigma_outlet_sleeve = 3.774E7, rho_outlet_sleeve = 2700, Cp_inlet_sleeve = 900, k_inlet_sleeve = 160, sigma_inlet_sleeve = 3.774E7, rho_inlet_sleeve = 2700) (degC), Point: 154Temperature (Cp_Al = 900, k_Al = 160, sigma_Al = 3.774E7, rho_Al = 2700, Cp_inlet = 900, k_inlet = 160, sigma_inlet = 3.774E7, rho_inlet = 2700, Cp_outlet = 900, k_outlet = 233.6, sigma_outlet = 3.774E7, rho_outlet = 2700, Cp_outlet_sleeve = 900, k_outlet_sleeve = 160, sigma_outlet_sleeve = 3.774E7, rho_outlet_sleeve = 2700, Cp_inlet_sleeve = 900, k_inlet_sleeve = 160, sigma_inlet_sleeve = 3.774E7, rho_inlet_sleeve = 2700) (degC), Point: 159Temperature (Cp_Al = 900, k_Al = 160, sigma_Al = 3.774E7, rho_Al = 2700, Cp_inlet = 900, k_inlet = 160, sigma_inlet = 3.774E7, rho_inlet = 2700, Cp_outlet = 900, k_outlet = 233.6, sigma_outlet = 3.774E7, rho_outlet = 2700, Cp_outlet_sleeve = 900, k_outlet_sleeve = 160, sigma_outlet_sleeve = 3.774E7, rho_outlet_sleeve = 2700, Cp_inlet_sleeve = 900, k_inlet_sleeve = 160, sigma_inlet_sleeve = 3.774E7, rho_inlet_sleeve = 2700) (degC), Point: 163Temperature (Cp_Al = 900, k_Al = 160, sigma_Al = 3.774E7, rho_Al = 2700, Cp_inlet = 900, k_inlet = 160, sigma_inlet = 3.774E7, rho_inlet = 2700, Cp_outlet = 900, k_outlet = 233.6, sigma_outlet = 3.774E7, rho_outlet = 2700, Cp_outlet_sleeve = 900, k_outlet_sleeve = 160, sigma_outlet_sleeve = 3.774E7, rho_outlet_sleeve = 2700, Cp_inlet_sleeve = 900, k_inlet_sleeve = 160, sigma_inlet_sleeve = 3.774E7, rho_inlet_sleeve = 2700) (degC), Point: 167Temperature (Cp_Al = 900, k_Al = 160, sigma_Al = 3.774E7, rho_Al = 2700, Cp_inlet = 900, k_inlet = 160, sigma_inlet = 3.774E7, rho_inlet = 2700, Cp_outlet = 900, k_outlet = 233.6, sigma_outlet = 3.774E7, rho_outlet = 2700, Cp_outlet_sleeve = 900, k_outlet_sleeve = 160, sigma_outlet_sleeve = 3.774E7, rho_outlet_sleeve = 2700, Cp_inlet_sleeve = 900, k_inlet_sleeve = 160, sigma_inlet_sleeve = 3.774E7, rho_inlet_sleeve = 2700) (degC), Point: 168Temperature (Cp_Al = 900, k_Al = 160, sigma_Al = 3.774E7, rho_Al = 2700, Cp_inlet = 900, k_inlet = 160, sigma_inlet = 3.774E7, rho_inlet = 2700, Cp_outlet = 900, k_outlet = 233.6, sigma_outlet = 3.774E7, rho_outlet = 2700, Cp_outlet_sleeve = 900, k_outlet_sleeve = 160, sigma_outlet_sleeve = 3.774E7, rho_outlet_sleeve = 2700, Cp_inlet_sleeve = 900, k_inlet_sleeve = 160, sigma_inlet_sleeve = 3.774E7, rho_inlet_sleeve = 2700) (degC), Point: 172Temperature (Cp_Al = 900, k_Al = 160, sigma_Al = 3.774E7, rho_Al = 2700, Cp_inlet = 900, k_inlet = 160, sigma_inlet = 3.774E7, rho_inlet = 2700, Cp_outlet = 900, k_outlet = 233.6, sigma_outlet = 3.774E7, rho_outlet = 2700, Cp_outlet_sleeve = 900, k_outlet_sleeve = 160, sigma_outlet_sleeve = 3.774E7, rho_outlet_sleeve = 2700, Cp_inlet_sleeve = 900, k_inlet_sleeve = 160, sigma_inlet_sleeve = 3.774E7, rho_inlet_sleeve = 2700) (degC), Point: 181Temperature (Cp_Al = 900, k_Al = 160, sigma_Al = 3.774E7, rho_Al = 2700, Cp_inlet = 900, k_inlet = 160, sigma_inlet = 3.774E7, rho_inlet = 2700, Cp_outlet = 900, k_outlet = 233.6, sigma_outlet = 3.774E7, rho_outlet = 2700, Cp_outlet_sleeve = 900, k_outlet_sleeve = 160, sigma_outlet_sleeve = 3.774E7, rho_outlet_sleeve = 2700, Cp_inlet_sleeve = 900, k_inlet_sleeve = 160, sigma_inlet_sleeve = 3.774E7, rho_inlet_sleeve = 2700) (degC), Point: 201Temperature (Cp_Al = 900, k_Al = 160, sigma_Al = 3.774E7, rho_Al = 2700, Cp_inlet = 900, k_inlet = 160, sigma_inlet = 3.774E7, rho_inlet = 2700, Cp_outlet = 900, k_outlet = 233.6, sigma_outlet = 3.774E7, rho_outlet = 2700, Cp_outlet_sleeve = 900, k_outlet_sleeve = 160, sigma_outlet_sleeve = 3.774E7, rho_outlet_sleeve = 2700, Cp_inlet_sleeve = 900, k_inlet_sleeve = 160, sigma_inlet_sleeve = 3.774E7, rho_inlet_sleeve = 2700) (degC), Point: 210Temperature (Cp_Al = 900, k_Al = 160, sigma_Al = 3.774E7, rho_Al = 2700, Cp_inlet = 900, k_inlet = 160, sigma_inlet = 3.774E7, rho_inlet = 2700, Cp_outlet = 900, k_outlet = 233.6, sigma_outlet = 3.774E7, rho_outlet = 2700, Cp_outlet_sleeve = 900, k_outlet_sleeve = 160, sigma_outlet_sleeve = 3.774E7, rho_outlet_sleeve = 2700, Cp_inlet_sleeve = 900, k_inlet_sleeve = 160, sigma_inlet_sleeve = 3.774E7, rho_inlet_sleeve = 2700) (degC), Point: 213Temperature (Cp_Al = 900, k_Al = 160, sigma_Al = 3.774E7, rho_Al = 2700, Cp_inlet = 900, k_inlet = 160, sigma_inlet = 3.774E7, rho_inlet = 2700, Cp_outlet = 900, k_outlet = 233.6, sigma_outlet = 3.774E7, rho_outlet = 2700, Cp_outlet_sleeve = 900, k_outlet_sleeve = 160, sigma_outlet_sleeve = 3.774E7, rho_outlet_sleeve = 2700, Cp_inlet_sleeve = 900, k_inlet_sleeve = 160, sigma_inlet_sleeve = 3.774E7, rho_inlet_sleeve = 2700) (degC), Point: 215Temperature (Cp_Al = 900, k_Al = 160, sigma_Al = 3.774E7, rho_Al = 2700, Cp_inlet = 900, k_inlet = 160, sigma_inlet = 3.774E7, rho_inlet = 2700, Cp_outlet = 900, k_outlet = 233.6, sigma_outlet = 3.774E7, rho_outlet = 2700, Cp_outlet_sleeve = 900, k_outlet_sleeve = 160, sigma_outlet_sleeve = 3.774E7, rho_outlet_sleeve = 2700, Cp_inlet_sleeve = 900, k_inlet_sleeve = 160, sigma_inlet_sleeve = 3.774E7, rho_inlet_sleeve = 2700) (degC), Point: 229Temperature (Cp_Al = 900, k_Al = 160, sigma_Al = 3.774E7, rho_Al = 2700, Cp_inlet = 900, k_inlet = 160, sigma_inlet = 3.774E7, rho_inlet = 2700, Cp_outlet = 900, k_outlet = 233.6, sigma_outlet = 3.774E7, rho_outlet = 2700, Cp_outlet_sleeve = 900, k_outlet_sleeve = 160, sigma_outlet_sleeve = 3.774E7, rho_outlet_sleeve = 2700, Cp_inlet_sleeve = 900, k_inlet_sleeve = 160, sigma_inlet_sleeve = 3.774E7, rho_inlet_sleeve = 2700) (degC), Point: 232Temperature (Cp_Al = 900, k_Al = 160, sigma_Al = 3.774E7, rho_Al = 2700, Cp_inlet = 900, k_inlet = 160, sigma_inlet = 3.774E7, rho_inlet = 2700, Cp_outlet = 900, k_outlet = 233.6, sigma_outlet = 3.774E7, rho_outlet = 2700, Cp_outlet_sleeve = 900, k_outlet_sleeve = 160, sigma_outlet_sleeve = 3.774E7, rho_outlet_sleeve = 2700, Cp_inlet_sleeve = 900, k_inlet_sleeve = 160, sigma_inlet_sleeve = 3.774E7, rho_inlet_sleeve = 2700) (degC), Point: 239Temperature (Cp_Al = 900, k_Al = 160, sigma_Al = 3.774E7, rho_Al = 2700, Cp_inlet = 900, k_inlet = 160, sigma_inlet = 3.774E7, rho_inlet = 2700, Cp_outlet = 900, k_outlet = 233.6, sigma_outlet = 3.774E7, rho_outlet = 2700, Cp_outlet_sleeve = 900, k_outlet_sleeve = 160, sigma_outlet_sleeve = 3.774E7, rho_outlet_sleeve = 2700, Cp_inlet_sleeve = 900, k_inlet_sleeve = 160, sigma_inlet_sleeve = 3.774E7, rho_inlet_sleeve = 2700) (degC), Point: 252Temperature (Cp_Al = 900, k_Al = 160, sigma_Al = 3.774E7, rho_Al = 2700, Cp_inlet = 900, k_inlet = 160, sigma_inlet = 3.774E7, rho_inlet = 2700, Cp_outlet = 900, k_outlet = 233.6, sigma_outlet = 3.774E7, rho_outlet = 2700, Cp_outlet_sleeve = 900, k_outlet_sleeve = 160, sigma_outlet_sleeve = 3.774E7, rho_outlet_sleeve = 2700, Cp_inlet_sleeve = 900, k_inlet_sleeve = 160, sigma_inlet_sleeve = 3.774E7, rho_inlet_sleeve = 2700) (degC), Point: 261Temperature (Cp_Al = 900, k_Al = 160, sigma_Al = 3.774E7, rho_Al = 2700, Cp_inlet = 900, k_inlet = 160, sigma_inlet = 3.774E7, rho_inlet = 2700, Cp_outlet = 900, k_outlet = 233.6, sigma_outlet = 3.774E7, rho_outlet = 2700, Cp_outlet_sleeve = 900, k_outlet_sleeve = 160, sigma_outlet_sleeve = 3.774E7, rho_outlet_sleeve = 2700, Cp_inlet_sleeve = 900, k_inlet_sleeve = 160, sigma_inlet_sleeve = 3.774E7, rho_inlet_sleeve = 2700) (degC), Point: 270Temperature (Cp_Al = 900, k_Al = 160, sigma_Al = 3.774E7, rho_Al = 2700, Cp_inlet = 900, k_inlet = 160, sigma_inlet = 3.774E7, rho_inlet = 2700, Cp_outlet = 900, k_outlet = 233.6, sigma_outlet = 3.774E7, rho_outlet = 2700, Cp_outlet_sleeve = 900, k_outlet_sleeve = 160, sigma_outlet_sleeve = 3.774E7, rho_outlet_sleeve = 2700, Cp_inlet_sleeve = 900, k_inlet_sleeve = 160, sigma_inlet_sleeve = 3.774E7, rho_inlet_sleeve = 2700) (degC), Point: 273Temperature (Cp_Al = 900, k_Al = 160, sigma_Al = 3.774E7, rho_Al = 2700, Cp_inlet = 900, k_inlet = 160, sigma_inlet = 3.774E7, rho_inlet = 2700, Cp_outlet = 900, k_outlet = 233.6, sigma_outlet = 3.774E7, rho_outlet = 2700, Cp_outlet_sleeve = 900, k_outlet_sleeve = 160, sigma_outlet_sleeve = 3.774E7, rho_outlet_sleeve = 2700, Cp_inlet_sleeve = 900, k_inlet_sleeve = 160, sigma_inlet_sleeve = 3.774E7, rho_inlet_sleeve = 2700) (degC), Point: 275
0                        21.58193496888765        21.010950323290274       21.13090760266499        21.00790277198314        21.01361024494736        21.108320054387093       21.00820387502273        21.024428877820753       21.001443232068084       21.02458151844189        21.00116321802733        21.00061780532934        21.00956246736922        21.000109529217468       21.007316484252556       21.01900164596549        21.000051839684374       21.01144830543194        21.00066726508146        21.00026969440978        21.001753801618463       21.000155671990967       21.00023865797681        21.00820016005497        21.118843622631687       21.013083138029344       21.521282388744794       21.007806160770485       21.143679654391008       21.014058225019824       21.647484424269066
3                        279.91350243391184       245.67200151565385       251.99452434091677       246.2930440146704        255.59281768094968       266.9299213133968        264.7131375002871        254.5061782724797        250.10088410817264       259.63898536239583       261.17640544451604       253.0006064223927        250.8082538673077        239.45692173813768       243.99323390502184       218.12312402102293       214.29361658096502       221.33585188586324       222.22666788569285       217.16108219982067       216.54947962765556       211.3797163403815        213.4993593709495        266.71395722485374       269.38084215014896       257.16805625533914       289.4744362137442        247.27015195402305       253.33679005954411       244.9305045751039        284.0153400343312
6                        392.8694318817903        357.4619288381966        366.2841945630023        360.9597374890203        375.5671181449163        391.81361800959974       390.64372887362265       376.30452199199146       369.93028294516216       384.42524514108584       387.0139777628466        378.8186659552705        375.57847606108066       359.25876387745984       365.7569261279999        330.1119894805611        325.0568445341819        334.758223218848         336.0584664764315        330.87941727834766       329.9041498023039        322.20871181635266       325.51324052102666       392.4490478056706        394.0439925516573        376.823478344681         411.11597327822267       360.0742002690714        365.7382634276835        354.5991089958426        394.9505926757623
9                        461.1094936072351        424.9414946565678        435.90417954289944       431.13583077644955       442.8903273525194        462.45496120799874       462.21417726980053       444.6651890373656        437.1671522444102        455.01377874470916       458.5346886069227        450.33044547723557       446.15900573368754       426.48257346629464       434.09586582475686       397.6992361940087        391.8421532138683        403.8053404745068        405.69088590683293       400.58413910796605       399.0464285480398        389.16211254330176       393.2444874810367        463.9203478611777        464.56360536850093       443.9596371976754        479.3844258178045        429.21606219833745       434.2869399590379        420.81219056095915       461.99746061266364
12                       508.8361430199169        472.12032422795323       484.8165785820694        480.56566976087174       487.1632912109161        508.99947075973057       509.46223049972036       489.5891733965724        481.3849871341928        501.525985599196         505.7526052630719        497.5460101328947        492.6688759603642        470.69460463024564       479.007368388647         445.0363144807776        438.60327407008685       452.3845974968442        454.8094131050375        449.7849508136753        447.71577220236156       436.0459791769857        440.6905502901092        511.1128680373628        511.0351167039828        488.1155385852627        524.2513698303189        478.09473178105486       482.61104735975937       467.24823098611694       509.03387235351545
15                       546.3365389645068        509.18863073688397       523.3388763340122        519.5488833244015        520.4744775582319        543.9664363154748        544.9664907767319        523.3535272738035        514.6575895645212        536.4708523932586        541.2364026297764        533.031649662006         527.6154194017472        503.96669258702616       512.7659860360569        482.2784788363308        475.39312620035776       490.6908483224669        493.5935765864443        488.66116112208715       486.11585305186543       472.9451355481789        478.0332654639574        546.5834942573762        545.9549625658699        521.3482780958644        557.9789038197998        516.765418326414         520.7875745843112        503.8475637612571        546.1046185513794
18                       577.1408376870965        539.6418323726332        555.0310756590532        551.6505423394353        546.8050111617808        571.537709855207         572.9575394822492        550.0090131805438        540.9608364689534        564.0269373207991        569.2135031012241        561.0125652050501        555.1750596863367        530.2721297076868        539.419460523138         512.9073077819122        505.6560029121857        522.2398371667115        525.565496141764         520.7258985921081        517.7564560971102        503.3060781308744        508.7542595409403        574.5547417678824        573.495840015435         547.6258346625204        584.6105137507675        548.6966061647256        552.2803212104371        534.0026507375518        576.64056102152
21                       603.8261173857384        566.0322422251478        582.4912523251285        579.4721912763956        569.0872952335093        594.7997030874475        596.5608028338708        572.5398972437324        563.2230514276453        587.2780686219372        592.8068626392777        584.6104765069608        578.4304612841437        552.537748070464         561.9502381934324        539.4658385403579        531.908314573963         549.5987399400456        553.2967812033385        548.5445365440031        545.2004883693102        529.6462511274282        535.3961896633988        598.1462418540391        596.7374861144705        569.8709087927001        607.1253075562812        576.4225325435275        579.6200564045708        560.1928940627171        603.1487169722054
24                       627.7608713887756        589.7152700977826        607.101402618917         604.3991457283662        588.9034308459574        615.4239515086077        617.4722181141601        592.5567873933409        583.0239731466445        607.8943119283703        613.7110207973109        605.5193287029714        599.0511240766333        572.3425149574393        581.9679591004989        563.3046179100379        555.4864477006731        574.1334644021626        578.1572646221508        573.4842824761953        569.8120858934392        553.3025915780894        559.309517810217         619.0507830774781        617.3477179193005        589.6600721042215        627.1309959931207        601.2942933188488        604.1541666785249        583.7350140664539        626.9607151826233
27                       649.6909069261462        611.4292507159242        629.6178149316676        627.1912929093139        607.1253259789489        634.3333036099698        636.6291732474796        610.9471666067004        601.2340790222622        626.7976383468131        632.8625376930843        624.675370919522         617.9587168723789        590.5564725489248        600.3595599137709        585.1596020548849        577.1182304408552        596.5916275158545        600.8985752934096        596.2960190323292        592.3384412042568        575.0034014333247        581.2304123239429        638.2039312308171        636.2472003323421        607.8619151055417        645.5133474759864        624.0541751474376        626.6208083867323        605.3461026135478        648.8023558418515
