% Model:              brazing.mph
% Version:            COMSOL 5.3.0.223
% Date:               Oct 23 2018, 11:40
% Table:              Table 3 - 
% Time (s)               Temperature (Cp_Al = 900, k_Al = 160, sigma_Al = 3.774E7, rho_Al = 2700, Cp_inlet = 900, k_inlet = 160, sigma_inlet = 3.774E7, rho_inlet = 2700, Cp_outlet = 900, k_outlet = 144, sigma_outlet = 3.774E7, rho_outlet = 2700, Cp_outlet_sleeve = 900, k_outlet_sleeve = 160, sigma_outlet_sleeve = 3.774E7, rho_outlet_sleeve = 2700, Cp_inlet_sleeve = 900, k_inlet_sleeve = 160, sigma_inlet_sleeve = 3.774E7, rho_inlet_sleeve = 2700) (degC), Point: 55Temperature (Cp_Al = 900, k_Al = 160, sigma_Al = 3.774E7, rho_Al = 2700, Cp_inlet = 900, k_inlet = 160, sigma_inlet = 3.774E7, rho_inlet = 2700, Cp_outlet = 900, k_outlet = 144, sigma_outlet = 3.774E7, rho_outlet = 2700, Cp_outlet_sleeve = 900, k_outlet_sleeve = 160, sigma_outlet_sleeve = 3.774E7, rho_outlet_sleeve = 2700, Cp_inlet_sleeve = 900, k_inlet_sleeve = 160, sigma_inlet_sleeve = 3.774E7, rho_inlet_sleeve = 2700) (degC), Point: 56Temperature (Cp_Al = 900, k_Al = 160, sigma_Al = 3.774E7, rho_Al = 2700, Cp_inlet = 900, k_inlet = 160, sigma_inlet = 3.774E7, rho_inlet = 2700, Cp_outlet = 900, k_outlet = 144, sigma_outlet = 3.774E7, rho_outlet = 2700, Cp_outlet_sleeve = 900, k_outlet_sleeve = 160, sigma_outlet_sleeve = 3.774E7, rho_outlet_sleeve = 2700, Cp_inlet_sleeve = 900, k_inlet_sleeve = 160, sigma_inlet_sleeve = 3.774E7, rho_inlet_sleeve = 2700) (degC), Point: 60Temperature (Cp_Al = 900, k_Al = 160, sigma_Al = 3.774E7, rho_Al = 2700, Cp_inlet = 900, k_inlet = 160, sigma_inlet = 3.774E7, rho_inlet = 2700, Cp_outlet = 900, k_outlet = 144, sigma_outlet = 3.774E7, rho_outlet = 2700, Cp_outlet_sleeve = 900, k_outlet_sleeve = 160, sigma_outlet_sleeve = 3.774E7, rho_outlet_sleeve = 2700, Cp_inlet_sleeve = 900, k_inlet_sleeve = 160, sigma_inlet_sleeve = 3.774E7, rho_inlet_sleeve = 2700) (degC), Point: 69Temperature (Cp_Al = 900, k_Al = 160, sigma_Al = 3.774E7, rho_Al = 2700, Cp_inlet = 900, k_inlet = 160, sigma_inlet = 3.774E7, rho_inlet = 2700, Cp_outlet = 900, k_outlet = 144, sigma_outlet = 3.774E7, rho_outlet = 2700, Cp_outlet_sleeve = 900, k_outlet_sleeve = 160, sigma_outlet_sleeve = 3.774E7, rho_outlet_sleeve = 2700, Cp_inlet_sleeve = 900, k_inlet_sleeve = 160, sigma_inlet_sleeve = 3.774E7, rho_inlet_sleeve = 2700) (degC), Point: 90Temperature (Cp_Al = 900, k_Al = 160, sigma_Al = 3.774E7, rho_Al = 2700, Cp_inlet = 900, k_inlet = 160, sigma_inlet = 3.774E7, rho_inlet = 2700, Cp_outlet = 900, k_outlet = 144, sigma_outlet = 3.774E7, rho_outlet = 2700, Cp_outlet_sleeve = 900, k_outlet_sleeve = 160, sigma_outlet_sleeve = 3.774E7, rho_outlet_sleeve = 2700, Cp_inlet_sleeve = 900, k_inlet_sleeve = 160, sigma_inlet_sleeve = 3.774E7, rho_inlet_sleeve = 2700) (degC), Point: 98Temperature (Cp_Al = 900, k_Al = 160, sigma_Al = 3.774E7, rho_Al = 2700, Cp_inlet = 900, k_inlet = 160, sigma_inlet = 3.774E7, rho_inlet = 2700, Cp_outlet = 900, k_outlet = 144, sigma_outlet = 3.774E7, rho_outlet = 2700, Cp_outlet_sleeve = 900, k_outlet_sleeve = 160, sigma_outlet_sleeve = 3.774E7, rho_outlet_sleeve = 2700, Cp_inlet_sleeve = 900, k_inlet_sleeve = 160, sigma_inlet_sleeve = 3.774E7, rho_inlet_sleeve = 2700) (degC), Point: 102Temperature (Cp_Al = 900, k_Al = 160, sigma_Al = 3.774E7, rho_Al = 2700, Cp_inlet = 900, k_inlet = 160, sigma_inlet = 3.774E7, rho_inlet = 2700, Cp_outlet = 900, k_outlet = 144, sigma_outlet = 3.774E7, rho_outlet = 2700, Cp_outlet_sleeve = 900, k_outlet_sleeve = 160, sigma_outlet_sleeve = 3.774E7, rho_outlet_sleeve = 2700, Cp_inlet_sleeve = 900, k_inlet_sleeve = 160, sigma_inlet_sleeve = 3.774E7, rho_inlet_sleeve = 2700) (degC), Point: 127Temperature (Cp_Al = 900, k_Al = 160, sigma_Al = 3.774E7, rho_Al = 2700, Cp_inlet = 900, k_inlet = 160, sigma_inlet = 3.774E7, rho_inlet = 2700, Cp_outlet = 900, k_outlet = 144, sigma_outlet = 3.774E7, rho_outlet = 2700, Cp_outlet_sleeve = 900, k_outlet_sleeve = 160, sigma_outlet_sleeve = 3.774E7, rho_outlet_sleeve = 2700, Cp_inlet_sleeve = 900, k_inlet_sleeve = 160, sigma_inlet_sleeve = 3.774E7, rho_inlet_sleeve = 2700) (degC), Point: 128Temperature (Cp_Al = 900, k_Al = 160, sigma_Al = 3.774E7, rho_Al = 2700, Cp_inlet = 900, k_inlet = 160, sigma_inlet = 3.774E7, rho_inlet = 2700, Cp_outlet = 900, k_outlet = 144, sigma_outlet = 3.774E7, rho_outlet = 2700, Cp_outlet_sleeve = 900, k_outlet_sleeve = 160, sigma_outlet_sleeve = 3.774E7, rho_outlet_sleeve = 2700, Cp_inlet_sleeve = 900, k_inlet_sleeve = 160, sigma_inlet_sleeve = 3.774E7, rho_inlet_sleeve = 2700) (degC), Point: 134Temperature (Cp_Al = 900, k_Al = 160, sigma_Al = 3.774E7, rho_Al = 2700, Cp_inlet = 900, k_inlet = 160, sigma_inlet = 3.774E7, rho_inlet = 2700, Cp_outlet = 900, k_outlet = 144, sigma_outlet = 3.774E7, rho_outlet = 2700, Cp_outlet_sleeve = 900, k_outlet_sleeve = 160, sigma_outlet_sleeve = 3.774E7, rho_outlet_sleeve = 2700, Cp_inlet_sleeve = 900, k_inlet_sleeve = 160, sigma_inlet_sleeve = 3.774E7, rho_inlet_sleeve = 2700) (degC), Point: 138Temperature (Cp_Al = 900, k_Al = 160, sigma_Al = 3.774E7, rho_Al = 2700, Cp_inlet = 900, k_inlet = 160, sigma_inlet = 3.774E7, rho_inlet = 2700, Cp_outlet = 900, k_outlet = 144, sigma_outlet = 3.774E7, rho_outlet = 2700, Cp_outlet_sleeve = 900, k_outlet_sleeve = 160, sigma_outlet_sleeve = 3.774E7, rho_outlet_sleeve = 2700, Cp_inlet_sleeve = 900, k_inlet_sleeve = 160, sigma_inlet_sleeve = 3.774E7, rho_inlet_sleeve = 2700) (degC), Point: 151Temperature (Cp_Al = 900, k_Al = 160, sigma_Al = 3.774E7, rho_Al = 2700, Cp_inlet = 900, k_inlet = 160, sigma_inlet = 3.774E7, rho_inlet = 2700, Cp_outlet = 900, k_outlet = 144, sigma_outlet = 3.774E7, rho_outlet = 2700, Cp_outlet_sleeve = 900, k_outlet_sleeve = 160, sigma_outlet_sleeve = 3.774E7, rho_outlet_sleeve = 2700, Cp_inlet_sleeve = 900, k_inlet_sleeve = 160, sigma_inlet_sleeve = 3.774E7, rho_inlet_sleeve = 2700) (degC), Point: 154Temperature (Cp_Al = 900, k_Al = 160, sigma_Al = 3.774E7, rho_Al = 2700, Cp_inlet = 900, k_inlet = 160, sigma_inlet = 3.774E7, rho_inlet = 2700, Cp_outlet = 900, k_outlet = 144, sigma_outlet = 3.774E7, rho_outlet = 2700, Cp_outlet_sleeve = 900, k_outlet_sleeve = 160, sigma_outlet_sleeve = 3.774E7, rho_outlet_sleeve = 2700, Cp_inlet_sleeve = 900, k_inlet_sleeve = 160, sigma_inlet_sleeve = 3.774E7, rho_inlet_sleeve = 2700) (degC), Point: 159Temperature (Cp_Al = 900, k_Al = 160, sigma_Al = 3.774E7, rho_Al = 2700, Cp_inlet = 900, k_inlet = 160, sigma_inlet = 3.774E7, rho_inlet = 2700, Cp_outlet = 900, k_outlet = 144, sigma_outlet = 3.774E7, rho_outlet = 2700, Cp_outlet_sleeve = 900, k_outlet_sleeve = 160, sigma_outlet_sleeve = 3.774E7, rho_outlet_sleeve = 2700, Cp_inlet_sleeve = 900, k_inlet_sleeve = 160, sigma_inlet_sleeve = 3.774E7, rho_inlet_sleeve = 2700) (degC), Point: 163Temperature (Cp_Al = 900, k_Al = 160, sigma_Al = 3.774E7, rho_Al = 2700, Cp_inlet = 900, k_inlet = 160, sigma_inlet = 3.774E7, rho_inlet = 2700, Cp_outlet = 900, k_outlet = 144, sigma_outlet = 3.774E7, rho_outlet = 2700, Cp_outlet_sleeve = 900, k_outlet_sleeve = 160, sigma_outlet_sleeve = 3.774E7, rho_outlet_sleeve = 2700, Cp_inlet_sleeve = 900, k_inlet_sleeve = 160, sigma_inlet_sleeve = 3.774E7, rho_inlet_sleeve = 2700) (degC), Point: 167Temperature (Cp_Al = 900, k_Al = 160, sigma_Al = 3.774E7, rho_Al = 2700, Cp_inlet = 900, k_inlet = 160, sigma_inlet = 3.774E7, rho_inlet = 2700, Cp_outlet = 900, k_outlet = 144, sigma_outlet = 3.774E7, rho_outlet = 2700, Cp_outlet_sleeve = 900, k_outlet_sleeve = 160, sigma_outlet_sleeve = 3.774E7, rho_outlet_sleeve = 2700, Cp_inlet_sleeve = 900, k_inlet_sleeve = 160, sigma_inlet_sleeve = 3.774E7, rho_inlet_sleeve = 2700) (degC), Point: 168Temperature (Cp_Al = 900, k_Al = 160, sigma_Al = 3.774E7, rho_Al = 2700, Cp_inlet = 900, k_inlet = 160, sigma_inlet = 3.774E7, rho_inlet = 2700, Cp_outlet = 900, k_outlet = 144, sigma_outlet = 3.774E7, rho_outlet = 2700, Cp_outlet_sleeve = 900, k_outlet_sleeve = 160, sigma_outlet_sleeve = 3.774E7, rho_outlet_sleeve = 2700, Cp_inlet_sleeve = 900, k_inlet_sleeve = 160, sigma_inlet_sleeve = 3.774E7, rho_inlet_sleeve = 2700) (degC), Point: 172Temperature (Cp_Al = 900, k_Al = 160, sigma_Al = 3.774E7, rho_Al = 2700, Cp_inlet = 900, k_inlet = 160, sigma_inlet = 3.774E7, rho_inlet = 2700, Cp_outlet = 900, k_outlet = 144, sigma_outlet = 3.774E7, rho_outlet = 2700, Cp_outlet_sleeve = 900, k_outlet_sleeve = 160, sigma_outlet_sleeve = 3.774E7, rho_outlet_sleeve = 2700, Cp_inlet_sleeve = 900, k_inlet_sleeve = 160, sigma_inlet_sleeve = 3.774E7, rho_inlet_sleeve = 2700) (degC), Point: 181Temperature (Cp_Al = 900, k_Al = 160, sigma_Al = 3.774E7, rho_Al = 2700, Cp_inlet = 900, k_inlet = 160, sigma_inlet = 3.774E7, rho_inlet = 2700, Cp_outlet = 900, k_outlet = 144, sigma_outlet = 3.774E7, rho_outlet = 2700, Cp_outlet_sleeve = 900, k_outlet_sleeve = 160, sigma_outlet_sleeve = 3.774E7, rho_outlet_sleeve = 2700, Cp_inlet_sleeve = 900, k_inlet_sleeve = 160, sigma_inlet_sleeve = 3.774E7, rho_inlet_sleeve = 2700) (degC), Point: 201Temperature (Cp_Al = 900, k_Al = 160, sigma_Al = 3.774E7, rho_Al = 2700, Cp_inlet = 900, k_inlet = 160, sigma_inlet = 3.774E7, rho_inlet = 2700, Cp_outlet = 900, k_outlet = 144, sigma_outlet = 3.774E7, rho_outlet = 2700, Cp_outlet_sleeve = 900, k_outlet_sleeve = 160, sigma_outlet_sleeve = 3.774E7, rho_outlet_sleeve = 2700, Cp_inlet_sleeve = 900, k_inlet_sleeve = 160, sigma_inlet_sleeve = 3.774E7, rho_inlet_sleeve = 2700) (degC), Point: 210Temperature (Cp_Al = 900, k_Al = 160, sigma_Al = 3.774E7, rho_Al = 2700, Cp_inlet = 900, k_inlet = 160, sigma_inlet = 3.774E7, rho_inlet = 2700, Cp_outlet = 900, k_outlet = 144, sigma_outlet = 3.774E7, rho_outlet = 2700, Cp_outlet_sleeve = 900, k_outlet_sleeve = 160, sigma_outlet_sleeve = 3.774E7, rho_outlet_sleeve = 2700, Cp_inlet_sleeve = 900, k_inlet_sleeve = 160, sigma_inlet_sleeve = 3.774E7, rho_inlet_sleeve = 2700) (degC), Point: 213Temperature (Cp_Al = 900, k_Al = 160, sigma_Al = 3.774E7, rho_Al = 2700, Cp_inlet = 900, k_inlet = 160, sigma_inlet = 3.774E7, rho_inlet = 2700, Cp_outlet = 900, k_outlet = 144, sigma_outlet = 3.774E7, rho_outlet = 2700, Cp_outlet_sleeve = 900, k_outlet_sleeve = 160, sigma_outlet_sleeve = 3.774E7, rho_outlet_sleeve = 2700, Cp_inlet_sleeve = 900, k_inlet_sleeve = 160, sigma_inlet_sleeve = 3.774E7, rho_inlet_sleeve = 2700) (degC), Point: 215Temperature (Cp_Al = 900, k_Al = 160, sigma_Al = 3.774E7, rho_Al = 2700, Cp_inlet = 900, k_inlet = 160, sigma_inlet = 3.774E7, rho_inlet = 2700, Cp_outlet = 900, k_outlet = 144, sigma_outlet = 3.774E7, rho_outlet = 2700, Cp_outlet_sleeve = 900, k_outlet_sleeve = 160, sigma_outlet_sleeve = 3.774E7, rho_outlet_sleeve = 2700, Cp_inlet_sleeve = 900, k_inlet_sleeve = 160, sigma_inlet_sleeve = 3.774E7, rho_inlet_sleeve = 2700) (degC), Point: 229Temperature (Cp_Al = 900, k_Al = 160, sigma_Al = 3.774E7, rho_Al = 2700, Cp_inlet = 900, k_inlet = 160, sigma_inlet = 3.774E7, rho_inlet = 2700, Cp_outlet = 900, k_outlet = 144, sigma_outlet = 3.774E7, rho_outlet = 2700, Cp_outlet_sleeve = 900, k_outlet_sleeve = 160, sigma_outlet_sleeve = 3.774E7, rho_outlet_sleeve = 2700, Cp_inlet_sleeve = 900, k_inlet_sleeve = 160, sigma_inlet_sleeve = 3.774E7, rho_inlet_sleeve = 2700) (degC), Point: 232Temperature (Cp_Al = 900, k_Al = 160, sigma_Al = 3.774E7, rho_Al = 2700, Cp_inlet = 900, k_inlet = 160, sigma_inlet = 3.774E7, rho_inlet = 2700, Cp_outlet = 900, k_outlet = 144, sigma_outlet = 3.774E7, rho_outlet = 2700, Cp_outlet_sleeve = 900, k_outlet_sleeve = 160, sigma_outlet_sleeve = 3.774E7, rho_outlet_sleeve = 2700, Cp_inlet_sleeve = 900, k_inlet_sleeve = 160, sigma_inlet_sleeve = 3.774E7, rho_inlet_sleeve = 2700) (degC), Point: 239Temperature (Cp_Al = 900, k_Al = 160, sigma_Al = 3.774E7, rho_Al = 2700, Cp_inlet = 900, k_inlet = 160, sigma_inlet = 3.774E7, rho_inlet = 2700, Cp_outlet = 900, k_outlet = 144, sigma_outlet = 3.774E7, rho_outlet = 2700, Cp_outlet_sleeve = 900, k_outlet_sleeve = 160, sigma_outlet_sleeve = 3.774E7, rho_outlet_sleeve = 2700, Cp_inlet_sleeve = 900, k_inlet_sleeve = 160, sigma_inlet_sleeve = 3.774E7, rho_inlet_sleeve = 2700) (degC), Point: 252Temperature (Cp_Al = 900, k_Al = 160, sigma_Al = 3.774E7, rho_Al = 2700, Cp_inlet = 900, k_inlet = 160, sigma_inlet = 3.774E7, rho_inlet = 2700, Cp_outlet = 900, k_outlet = 144, sigma_outlet = 3.774E7, rho_outlet = 2700, Cp_outlet_sleeve = 900, k_outlet_sleeve = 160, sigma_outlet_sleeve = 3.774E7, rho_outlet_sleeve = 2700, Cp_inlet_sleeve = 900, k_inlet_sleeve = 160, sigma_inlet_sleeve = 3.774E7, rho_inlet_sleeve = 2700) (degC), Point: 261Temperature (Cp_Al = 900, k_Al = 160, sigma_Al = 3.774E7, rho_Al = 2700, Cp_inlet = 900, k_inlet = 160, sigma_inlet = 3.774E7, rho_inlet = 2700, Cp_outlet = 900, k_outlet = 144, sigma_outlet = 3.774E7, rho_outlet = 2700, Cp_outlet_sleeve = 900, k_outlet_sleeve = 160, sigma_outlet_sleeve = 3.774E7, rho_outlet_sleeve = 2700, Cp_inlet_sleeve = 900, k_inlet_sleeve = 160, sigma_inlet_sleeve = 3.774E7, rho_inlet_sleeve = 2700) (degC), Point: 270Temperature (Cp_Al = 900, k_Al = 160, sigma_Al = 3.774E7, rho_Al = 2700, Cp_inlet = 900, k_inlet = 160, sigma_inlet = 3.774E7, rho_inlet = 2700, Cp_outlet = 900, k_outlet = 144, sigma_outlet = 3.774E7, rho_outlet = 2700, Cp_outlet_sleeve = 900, k_outlet_sleeve = 160, sigma_outlet_sleeve = 3.774E7, rho_outlet_sleeve = 2700, Cp_inlet_sleeve = 900, k_inlet_sleeve = 160, sigma_inlet_sleeve = 3.774E7, rho_inlet_sleeve = 2700) (degC), Point: 273Temperature (Cp_Al = 900, k_Al = 160, sigma_Al = 3.774E7, rho_Al = 2700, Cp_inlet = 900, k_inlet = 160, sigma_inlet = 3.774E7, rho_inlet = 2700, Cp_outlet = 900, k_outlet = 144, sigma_outlet = 3.774E7, rho_outlet = 2700, Cp_outlet_sleeve = 900, k_outlet_sleeve = 160, sigma_outlet_sleeve = 3.774E7, rho_outlet_sleeve = 2700, Cp_inlet_sleeve = 900, k_inlet_sleeve = 160, sigma_inlet_sleeve = 3.774E7, rho_inlet_sleeve = 2700) (degC), Point: 275
0                        21.581935594229094       21.010960793343486       21.13095720024586        21.00806157631962        21.013610244949632       21.1083200543888         21.00820387502256        21.024428877822857       21.001443232068596       21.02458151844189        21.00116321802716        21.000617805329455       21.009562467369676       21.00010952921724        21.007316484250623       21.01900173297082        21.000052095428885       21.011455991804667       21.00067965692722        21.00027706746772        21.001755607439634       21.000155998906223       21.000238764351593       21.008200160055537       21.118843622637996       21.013083138031732       21.52128238865231        21.007951807325753       21.143736619873664       21.014061342737534       21.647485100024937
3                        292.5513819278982        257.53883955032893       267.58907072038596       263.1891922051884        255.59344168925315       266.9315566307546        264.7149691722451        254.50757730225632       250.10191835071703       259.64087868221327       261.17846780752154       253.0022360173025        250.80966542502438       239.4571898113569        243.99397898534278       224.2224894394917        219.6739018940047        228.9426863874898        230.50311693104555       223.99833093222378       223.04055996493224       216.21980112464342       218.97778504876192       266.71582237215523       269.3825135483223        257.1687453934353        289.47553818213964       265.3275521645618        269.9640951880274        257.3062302073672        297.3123931438719
6                        414.5631269941259        378.03305396323276       391.68170098696066       387.9547587855718        375.57664102659794       391.8205521285013        390.65016817474896       376.31155623608356       369.9381303344744        384.4311974321763        387.0195446653762        378.8256782281152        375.5860530629843        359.2694089701961        365.76624473510833       345.17484624687836       339.0421889994416        352.0753787998809        354.33935085394717       347.590871806878         345.98599920246613       335.56484879381367       339.8542696980387        392.45516926559424       394.05057538294045       376.832390204955         411.12388448880097       387.8168343718413        391.7689247405749        375.29243483713753       416.9205809447949
9                        488.0875294847376        450.6186206988551        466.9515507366291        463.9424090123007        442.98562207812097       462.5388075808403        462.2951282639142        444.75216335154505       437.25751461186167       455.09463390245185       458.61297364567497       450.4128407382334        446.24446568222425       426.5806022504121        434.18923416721634       417.824694214333         410.7101459763089        426.54421725418          429.5508341392715        422.9201603238712        420.6060082935994        407.4822594826978        412.72228039447737       464.00001813358165       464.6460608261584        444.05260717725696       479.4735996514746        462.3415868435443        465.55850343145937       446.2342753012432        488.8727567432368
12                       538.1753232216739        500.0703658752584        518.4026212276746        515.9982976039727        487.40738711479617       509.22362062089155       509.68078525979297       489.8204705498149        481.62191550374394       501.7457399277872        505.96723853914057       497.76631352193806       492.89497947018924       470.94201214682187       479.24746654386774       467.3847882855831        459.6045192387022        477.52099060050386       481.15201132771585       474.5945990619198        471.67357617123344       456.5239668240438        462.40977082440395       511.32915505519645       511.2568222610879        488.35561698159347       524.4853505183988        513.5457703508274        516.1355380742226        494.6832140533859        538.0082145175202
15                       576.1794315223691        537.6077229081125        557.4882725285119        555.5809567856145        520.8742102717854        544.3407759243241        545.3332636910768        523.7382698213269        515.0492658161971        536.8402245584771        541.598741785783         533.4000649044094        527.9915968912528        504.3695705227185        513.1601701307653        505.0472377852318        496.77937122682386       516.30400044364          520.4471116902583        513.9623985518506        510.5371744405908        493.8093623563144        500.1705412370171        546.9473588645762        546.3261833878655        521.7429310141224        558.36620101701          552.61602175978          554.6858824158902        531.5813450027725        575.4105630637431
18                       606.2590854267592        567.3353489997801        588.4433841373461        586.9500084490227        547.3427931328363        572.0479304625248        573.459161802017         550.5315853710503        541.4907195406299        564.5322689562241        569.7107601473008        561.5154919559022        555.686745145656         530.8124629048463        539.9508645360393        534.903387517051         526.2686918204256        547.0647423146733        551.6336799053133        545.2223381137263        541.3734150681513        523.3878441503194        530.1085559550925        575.0531785642958        574.0026588767604        548.1581134490065        585.1351592163752        583.6873723630329        585.321100211339         560.9042035311126        605.1136699194022
21                       631.5567686249781        592.3536202557065        614.4723731369781        613.3312969764662        569.730074170355         595.4156190909578        597.1680021832987        573.1687113880785        563.858797177952         587.88961682565          593.4101606149437        585.218550847148         579.0473669586884        553.1823066500573        562.5865192063015        560.0484469041279        551.1234690997188        572.9636275082572        577.8944832702111        571.5540493529533        567.3423928967491        548.3176761021186        555.3241671582581        598.7502944779291        597.3500543403367        570.5083038204652        607.7555666831836        609.8947571154116        611.1556538830129        585.6578340439235        630.1685318386999
24                       653.8407066120787        614.4065392039454        637.3827972793146        636.547134838567         589.611929753964         616.108292515567         618.1484275906276        593.2534567044244        583.7267095424952        608.5750616794635        614.3840211478706        606.195982563407         599.7359772630767        573.0520074998919        582.6703694181713        582.224351657988         573.0601416332198        595.7838685481602        601.0280533519264        594.7536165574743        590.2264354005323        570.3186732408386        577.5614601490296        619.7241203919283        618.0290144090998        590.3637026869836        627.8284695188232        633.0095721318942        633.9466158051547        607.5328720425383        652.2917654816268
27                       674.11764158166          634.4870923075639        658.2053052375372        657.6375820758981        607.8616441036066        635.049320271864         637.3380986644332        611.6741983188148        601.9660705815629        627.510946872165         633.5690418225139        625.3843607842149        618.674823311872         591.2930796643619        601.090530472345         602.4223276989082        593.055380268693         616.5418382383726        622.06055317485          615.8463103125762        611.041860174641         590.3697593447273        597.8132387317904        638.9104103071713        636.960634251858         608.5941282748887        646.2406091528925        654.0426720388307        654.6955036537986        627.4909752747402        672.4599666186633
