% Model:              brazing.mph
% Version:            COMSOL 5.3.0.223
% Date:               Oct 23 2018, 11:21
% Dimension:          1
% Nodes:              161
% Expressions:        1
% Description:        Line graph
% x                       Height
0                         654.8847935834149
1.9693985890610136E-4     654.8596483881162
3.9298030043864816E-4     654.843925981967
5.884188308682271E-4      654.8376263649673
7.835557095112735E-4      654.8407495371171
9.786925881542028E-4      654.8532954984165
0.0011741311185834375     654.8752642488654
0.0013701715601154056     654.9066557884638
0.0015671114190207022     654.9474701172118
0.0017642608961497635     654.7080910498223
0.0019605081241513326     654.4651598935401
0.0021561515411346144     654.2186766483651
0.002351492352702621      653.9686413142975
0.0025468331642698894     653.7150538913372
0.0027424765812509564     653.4579143794844
0.0029387238092488436     653.1972227787386
0.0031358732863727766     652.9329790891003
0.0033326885608882563     652.5606995888971
0.0035286060983021257     652.1940647687777
0.0037239228519497995     651.8330746287422
0.003918938519653848      651.4777291687906
0.004113954187357973      651.1280283889226
0.004309270941005876      650.7839722891387
0.004505188478420127      650.4455608694385
0.004702003752936137      650.1127941298221
0.004899138702461749      649.7607756310947
0.005095371599302965      649.4262339841175
0.005291000816927052      649.1091691888905
0.005486327495291825      648.8095812454138
0.005681654173656831      648.5274701536874
0.0058772833912816074     648.2628359137113
0.0060735162881239745     648.0156785254854
0.006270651237651189      647.7859979890098
0.006467582778148322      647.6048556399036
0.006663615013526554      647.4572607965022
0.006859045413116663      647.343213458805
0.0070541741987231454     647.2627136268128
0.007249302984329781      647.2157613005251
0.007444733383920351      647.2023564799421
0.007640765619299351      647.2224991650637
0.007837697159797551      647.27618935589
0.008034634474091872      647.2760330341872
0.008230672405352359      647.3131474538986
0.008426108448549354      647.3875326150243
0.008621242851524007      647.4991885175641
0.008816377254498534      647.648115161518
0.009011813297695145      647.8343125468862
0.009207851228955002      648.0577806736685
0.00940478854324844       648.3185195418649
0.00960192671152544       648.6330090975105
0.00979816278359587       648.963394405222
0.009993795147248338      649.3096754649994
0.010189124956984269      649.6718522768426
0.010384454766719743      650.0499248407518
0.010580087130370853      650.4438931567269
0.010776323202439026      650.8537572247678
0.01097346137071288       651.2795170448748
0.011170281912174305      651.6562158820541
0.011366204645540166      652.0431766747887
0.011561526547508357      652.4403994230788
0.011756547339625332      652.8478841269242
0.011951568131742307      653.265630786325
0.0121468900337105        653.6936394012812
0.012342812767076368      654.1319099717927
0.0125396333085378        654.5804424978596
0.012736771215691979      654.8692361829393
0.012933007030171178      655.1568142439986
0.013128639138602195      655.4431766810375
0.013323968694306592      655.7283234940556
0.013519298250011432      656.0122546830534
0.013714930358443784      656.2949702480305
0.0139111661729252        656.5764701889871
0.014108304080082462      656.8567545059232
0.014305241249097643      656.8528200845963
0.014501279037039759      656.8509378494625
0.014696714938233999      656.8511078005223
0.014891849199866372      656.8533299377752
0.015086983461498874      656.8576042612215
0.015282419362693495      656.863930770861
0.01547845715063625       656.8723094666939
0.015675394319652317      656.88274034872
0.015872325504405583      656.5127192480832
0.01606835738884011       656.1462624094997
0.016263787440706973      655.7833698329697
0.016458915880206496      655.4240415184931
0.016654044319705866      655.0682774660701
0.016849474371572262      654.7160776757005
0.017045506256006017      654.3674421473844
0.017242437440758204      654.0223708811217
0.01743957168037589       653.4541518657807
0.017635803876907424      652.8765281203323
0.01783143240066149       652.2894996447767
0.018026758388388308      651.6930664391139
0.01822208437611492       651.0872285033438
0.01841771289986836       650.4719858374665
0.018613945096398854      649.847338441482
0.018811079336015085      649.2132863153901
0.019007894687321662      648.5379906405136
0.01920381230049143       647.8656130133943
0.019399129129200405      647.1961534340321
0.01959414487161704       646.5296119024272
0.01978916061403359       645.8659884185795
0.01998447744274231       645.2052829824889
0.020180395055911654      644.5474955941556
0.020377210407217645      643.8926262535796
0.020574360469106157      643.2974556164339
0.020770608273960874      642.7242876356582
0.020966252262493188      642.1731223112523
0.021161593642948652      641.6439596432165
0.021356935023404883      641.1367996315505
0.021552579011939476      640.6516422762544
0.021748826816797996      640.1884875773283
0.021945976878691802      639.747335534772
0.022142917141692885      639.4043879273216
0.022338957981867254      639.1058713820088
0.022534396907280062      638.8517858988336
0.02272953417907009       638.6421314777958
0.02292467145086023       638.4769081188956
0.02312011037627338       638.356115822133
0.02331615121644832       638.2797545875078
0.023513091479450195      638.2478244150202
0.023710025135207962      638.1807015797231
0.02390605945730262       638.1629515628596
0.024101491924457957      638.1945743644295
0.024296622768016963      638.2755699844331
0.024491753611575823      638.4059384228702
0.02468718607873073       638.5856796797409
0.024883220400824673      638.8147937550451
0.025080154056581445      639.0932806487829
0.025277299572591536      639.4769584530922
0.025473542893039384      639.8831545709824
0.02566918243840792       640.3118690024539
0.025864519396400307      640.7631017475065
0.026059856354392216      641.2368528061403
0.026255495899759323      641.7331221783552
0.026451739220204794      642.2519098641513
0.026648884736211575      642.7932158635285
0.02684569473774919       643.3796547135258
0.027041607073256636      643.9722887545239
0.027236918672681274      644.5711179865226
0.027431929210095855      645.1761424095221
0.027626939747510428      645.7873620235223
0.027822251346935042      646.404776828523
0.028018163682442445      647.0283868245247
0.028214973683980002      647.6581920115269
0.028412120943583204      648.2550061506018
0.028608365984047285      648.8411341383944
0.02880400723361381       649.4165759749045
0.02899934588786498       649.9813316601322
0.02919468454211669       650.5354011940776
0.029390325791684838      651.0787845767405
0.02958657083215161       651.611481808121
0.029783718091758563      652.1334928882192
0.029980652759780888      652.4811264345113
0.030176688080480362      652.8276968495484
0.030372121537075924      653.1732041333306
0.03056725336547531       653.5176482858575
0.030762385193874833      653.8610293071295
0.030957818650470807      654.2033471971463
0.031153853971170976      654.5446019559081
0.031350788639194264      654.8847935834149
