% Model:              brazing.mph
% Version:            COMSOL 5.3.0.223
% Date:               Oct 23 2018, 10:52
% Dimension:          1
% Nodes:              225
% Expressions:        1
% Description:        Line graph
% x                       Height
0                         650.0583934125503
2.02242572596226E-4       650.0496224560964
4.040113375593453E-4      649.9798337422309
6.054635867748898E-4      649.8490272709538
8.067573541103817E-4      649.6572030422652
0.0010080510467017985     649.4043610561652
0.001209503071861434      649.0905013126535
0.0014112714639836859     648.7156238117303
0.001613513515825394      648.2797285533954
0.001815803045808458      647.8869612750246
0.0020176184164428694     647.4492490604059
0.0022191170764546647     646.9665919095391
0.0024204572175778446     646.4389898224246
0.00262179740518867       645.866442799062
0.002823296204553664      645.2489508394516
0.0030251118070788686     644.5865139435932
0.003227401660948015      643.8791321114869
0.0034297372965816655     643.1913824313095
0.003631598594156443      642.4681361923498
0.0038331430353414214     641.7093933946076
0.004034528845142556      640.915154038083
0.004235914622467191      640.085418122776
0.004437458966299354      639.2201856486864
0.004639320101874085      638.3194566158148
0.004841655511239337      637.3832310241605
0.005043918276497792      636.5242948731473
0.005245706959792293      635.6539565843133
0.0054471789681153834     634.7722161576588
0.00564849245128538       633.8790735931838
0.005849805932728159      632.9745288908881
0.006051277935873691      632.058582050772
0.00625306661055245       631.1312330728351
0.006455329363777148      630.1924819570778
0.0066576887471433525     629.2825413074894
0.0068595736811967985     628.3905487281908
0.007061141707903535      627.5165042191818
0.007262551112883539      626.6604077804627
0.007463960555734714      625.8222594120333
0.007665528695965537      625.0020591138938
0.00786741381892875       624.1998068860439
0.0080697734661485        623.4155027284838
0.008272395437950266      622.7081516193258
0.008474540847339949      622.0235764400037
0.008676367906616744      621.3617771905176
0.008878035577337231      620.7227538708676
0.009079703197965442      620.1065064810535
0.009281530107084053      619.5130350210754
0.00948367526660416       618.9423394909335
0.009686296889411194      618.3944198906273
0.009888748367913874      618.0404066745622
0.010090724718905934      617.7238674430653
0.010292383720552634      617.4448021961367
0.010493883896490891      617.2032109337764
0.010695384145210549      616.9990936559844
0.010897043365029401      616.8324503627608
0.011099020079070253      616.7032810541054
0.011301472064648224      616.6115857300184
0.011503924099142101      616.6183594072263
0.011705900863193036      616.6636856705069
0.011907560133099505      616.7475645198604
0.012109060430962503      616.8699959552868
0.012310560654077738      617.0309799767858
0.012512219699917606      617.2305165843578
0.012714196091111104      617.4686057780026
0.012916647604829811      617.7452475577202
0.013119269382981878      618.1644823620818
0.013321414683399362      618.6143739393035
0.013523241722808088      619.0949222893854
0.013724909467002238      619.6061274123275
0.013926577258472442      620.1479893081297
0.014128404439597363      620.7205079767923
0.014330549975836581      621.3236834183149
0.01453317208336263       621.9575156326978
0.014735531766219815      622.6574354348036
0.014937416940401616      623.3698544788505
0.015138985143475461      624.0947727648384
0.015340394656791169      624.8321902927672
0.015541804135826716      625.5821070626372
0.015743372236141022      626.344523074448
0.015945257239325793      627.1194383282
0.01614761668334845       627.9068528238929
0.01634987940592303       628.8020621630708
0.016551668047823844      629.6850337057524
0.016753140015983766      630.555767451938
0.0169544534601584        631.4142634016272
0.017155766903708087      632.2605215548202
0.017357238869994664      633.0945419115172
0.017559027508778132      633.9163244717178
0.01776129022699866       634.7258692354224
0.017963625484858744      635.5618736582142
0.018165486461237414      636.3737890494416
0.018367030641941378      637.1616154091046
0.018568416255992027      637.9253527372032
0.018769801906169285      638.6650010337373
0.018971346195167795      639.3805602987071
0.019173207351754082      640.0720305321125
0.019375542861313405      640.7394117339535
0.019577832661189145      641.4253419654874
0.019779648217873542      642.0610732865971
0.019981146975907166      642.6466056972828
0.020182487123025287      643.1819391975442
0.020383827220813066      643.6670737873816
0.020585325830972126      644.1020094667948
0.020787141141585735      644.4867462357839
0.020989430597769934      644.8212840943489
0.021191672662378012      645.2522126891952
0.021393441061935803      645.6218383244724
0.02159489309031221       645.9301610001806
0.021796186783028852      646.17718071632
0.021997480548535182      646.3628974728903
0.022198932795108938      646.4873112698916
0.022400701557758636      646.5504221073238
0.02260294412950465       646.5522299851871
0.02280539620920995       646.5979975075945
0.023007373018156245      646.5802033216104
0.02320903233274668       646.4988474272349
0.023410532675187733      646.3539298244675
0.023612032942881025      646.1454505133086
0.023813692033404853      645.8734094937582
0.024015668469493705      645.5378067658162
0.024218120028423832      645.1386423294826
0.024420742013481003      644.7573533713112
0.02462288751935683       644.3240740590085
0.02482471476325633       643.8388043925746
0.02502638271145666       643.3015443720095
0.025228050706933344      642.7122939973132
0.025429878092549915      642.0710532684858
0.025632023834248962      641.3778221855268
0.025834646148682177      640.632600748437
0.026037006051731277      639.8831297105374
0.026238891444565628      639.0947092727222
0.02644045986526205       638.2673394349911
0.026641869595683754      637.4010201973442
0.02684327929182417       636.4957515597816
0.027044847609757647      635.5515335223031
0.02724673283158932       634.5683660849089
0.027449092495796006      633.5462492475988
0.02765135518998453       632.5488653353591
0.027853143803698084      631.5432323708513
0.028054615743803996      630.5293503540756
0.028255929159991804      629.5072192850319
0.028457242575555555      628.47683916372
0.028658714513790734      627.4382099901402
0.028860503124391312      626.3913317642922
0.029062765814231884      625.3362044861763
0.029265100752448706      624.2868527542622
0.02946696141141544       623.2622849968151
0.029668505276199596      622.262501213835
0.029869890575077548      621.2875014053216
0.03007127591008127       620.3372855712751
0.030272819883157453      619.4118537116956
0.03047468072232762       618.511205826583
0.030677015912237836      617.6353419159373
0.030879305594778746      616.8324220390485
0.03108112103494649       616.0660083577769
0.031282619677010744      615.3361008721223
0.03148395970843373       614.6426995820848
0.0316852996905265        613.9858044876643
0.031886798184716555      613.3654155888609
0.032088613378814135      612.7815328856744
0.03229090271766436       612.2341563781051
0.03249314477533616       611.8634014789822
0.03269491316800606       611.5457399107464
0.03289636518952694       611.281171673398
0.03309765887540427       611.0696967669369
0.033298952634071295      610.9113151913631
0.033500404873789524      610.8060269466765
0.03370217362955133       610.7538320328774
0.03390441619436107       610.7547304499655
0.03410686840969767       610.8562546987296
0.03430884535332711       611.0111856196876
0.0345105048019665        611.2195232128394
0.034712005278138794      611.4812674781851
0.03491350567956333       611.7964184157248
0.03511516490413611       612.1649760254583
0.035317141474908095      612.5869403073857
0.03551959316946952       613.062311261507
0.035722216260139425      613.6749485408145
0.03592436286389621       614.3284461427442
0.036126191200505704      615.0228040672959
0.03632786023882611       615.7580223144698
0.03652952932442421       616.5341008842659
0.036731357802754806      617.351039776684
0.03693350464234149       618.2088389917245
0.03713612806239678       619.1074985293869
0.03733848789969145       620.0656285096661
0.037540373227224554      621.0437274804326
0.03774194158292153       622.0417954416868
0.03794335124849304       623.0598323934283
0.03814476087977932       624.0978383356573
0.03834632913270157       625.1558132683739
0.03854821428921239       626.233757191578
0.038750573887637245      627.3316701052695
0.03895283596123875       628.4925553660789
0.039154623958694366      629.6405977235388
0.039356095285438375      630.7757971776489
0.03955740808971597       631.8981537284092
0.03975872089337115       633.0076673758198
0.03996019221824938       634.1043381198807
0.04016198021260023       635.1881659605918
0.04036424228186526       636.2591508979534
0.040566577948397485      637.3170730288645
0.040768439330593605      638.3410361126266
0.04096998391520435       639.3310401492399
0.04117136993220262       640.2870851387046
0.04137275598532357       641.2091710810204
0.04157430067821714       642.0972979761873
0.04177616224060133       642.9514658242053
0.0419784981588055        643.7716746250746
0.04218078754816035       644.5753014289354
0.04238260269718259       645.3182515108017
0.04258410104946696       646.0005248706736
0.04278544079179545       646.6221215085511
0.04298678048479618       647.1830414244342
0.043188278689213704      647.683284618323
0.043390093592177985      648.1228510902174
0.04359238263785921       648.5017408401173
0.043794623705544454      648.9291198437069
0.04399639111513442       649.2899852952863
0.04419784215819482       649.5843371948556
0.04439913486792596       649.8121755424148
0.044600427650446826      649.9735003379639
0.04480187891170468       650.0683115815028
0.045003646684386715      650.0966092730317
0.04520588825921017       650.0583934125503
