% Model:              brazing.mph
% Version:            COMSOL 5.3.0.223
% Date:               Oct 23 2018, 11:09
% Dimension:          1
% Nodes:              225
% Expressions:        1
% Description:        Line graph
% x                       Height
0                         652.4439630938854
2.02242572596226E-4       652.4349612243395
4.040113375593453E-4      652.3649301892812
6.054635867748898E-4      652.2338699887102
8.067573541103817E-4      652.0417806226268
0.0010080510467017985     651.7886620910307
0.001209503071861434      651.4745143939222
0.0014112714639836859     651.099337531301
0.001613513515825394      650.6631315031673
0.001815803045808458      650.2700790722974
0.0020176184164428694     649.8320733654284
0.0022191170764546647     649.3491143825603
0.0024204572175778446     648.8212021236931
0.00262179740518867       648.2483365888266
0.002823296204553664      647.6305177779614
0.0030251118070788686     646.9677456910966
0.003227401660948015      646.260020328233
0.0034297372965816655     645.571935504017
0.003631598594156443      644.8483450467958
0.0038331430353414214     644.0892489565695
0.004034528845142556      643.294647233338
0.004235914622467191      642.4645398771013
0.004437458966299354      641.5989268878595
0.004639320101874085      640.6978082656125
0.004841655511239337      639.7611840103605
0.005043918276497792      638.9019002405244
0.005245706959792293      638.0312077237396
0.0054471789681153834     637.149106460006
0.00564849245128538       636.2555964493237
0.005849805932728159      635.3506776916926
0.006051277935873691      634.4343501871127
0.00625306661055245       633.5066139355841
0.006455329363777148      632.5674689371068
0.0066576887471433525     631.657140763656
0.0068595736811967985     630.7647617274918
0.007061141707903535      629.8903318286141
0.007262551112883539      629.0338510670231
0.007463960555734714      628.1953194427185
0.007665528695965537      627.3747369557007
0.00786741381892875       626.5721036059692
0.0080697734661485        625.7874193935245
0.008272395437950266      625.0797034450413
0.008474540847339949      624.3947596675571
0.008676367906616744      623.7325880610719
0.008878035577337231      623.0931886255855
0.009079703197965442      622.4765613610982
0.009281530107084053      621.8827062676099
0.00948367526660416       621.3116233451206
0.009686296889411194      620.7633125936302
0.009888748367913874      620.4089828553351
0.010090724718905934      620.0921268241486
0.010292383720552634      619.8127445000708
0.010493883896490891      619.5708358831018
0.010695384145210549      619.3664009732414
0.010897043365029401      619.1994397704897
0.011099020079070253      619.0699522748466
0.011301472064648224      618.9779384863123
0.011503924099142101      618.9844192049429
0.011705900863193036      619.0294542125899
0.011907560133099505      619.113043509253
0.012109060430962503      619.2351870949325
0.012310560654077738      619.3958849696281
0.012512219699917606      619.59513713334
0.012714196091111104      619.832943586068
0.012916647604829811      620.1093043278124
0.013119269382981878      620.5283159703168
0.013321414683399362      620.9779888053507
0.013523241722808088      621.458322832914
0.013724909467002238      621.9693180530065
0.013926577258472442      622.5109744656285
0.014128404439597363      623.0832920707797
0.014330549975836581      623.6862708684603
0.01453317208336263       624.3199108586703
0.014735531766219815      625.019667710557
0.014937416940401616      625.7319265177365
0.015138985143475461      626.4566872802092
0.015340394656791169      627.1939499979745
0.015541804135826716      627.9437146710328
0.015743372236141022      628.7059812993841
0.015945257239325793      629.4807498830282
0.01614761668334845       630.2680204219653
0.01634987940592303       631.1631689117208
0.016551668047823844      632.0460834075834
0.016753140015983766      632.9167639095526
0.0169544534601584        633.7752104176288
0.017155766903708087      634.6214229318118
0.017357238869994664      635.4554014521017
0.017559027508778132      636.2771459784983
0.01776129022699866       637.0866565110019
0.017963625484858744      637.9226415654099
0.018165486461237414      638.734549410421
0.018367030641941378      639.5223800460349
0.018568416255992027      640.2861334722519
0.018769801906169285      641.0258096890718
0.018971346195167795      641.7414086964949
0.019173207351754082      642.4329304945207
0.019375542861313405      643.1003750831499
0.019577832661189145      643.7863871571599
0.019779648217873542      644.4222037457497
0.019981146975907166      645.0078248489192
0.020182487123025287      645.5432504666684
0.020383827220813066      646.0284805989974
0.020585325830972126      646.4635152459059
0.020787141141585735      646.8483544073943
0.020989430597769934      647.1829980834622
0.021191672662378012      647.6141185003345
0.021393441061935803      647.9839393162247
0.02159489309031221       648.2924605311329
0.021796186783028852      648.5396821450588
0.021997480548535182      648.7256041580026
0.022198932795108938      648.8502265699643
0.022400701557758636      648.9135493809439
0.02260294412950465       648.9155725909412
0.02280539620920995       648.9615858757421
0.023007373018156245      648.9440397822582
0.02320903233274668       648.8629343104892
0.023410532675187733      648.7182694604353
0.023612032942881025      648.5100452320966
0.023813692033404853      648.2382616254727
0.024015668469493705      647.902918640564
0.024218120028423832      647.5040162773704
0.024420742013481003      647.1230484203453
0.02462288751935683       646.690091955284
0.02482471476325633       646.205146882186
0.02502638271145666       645.6682132010517
0.025228050706933344      645.0792909118809
0.025429878092549915      644.4383800146737
0.025632023834248962      643.7454805094302
0.025834646148682177      643.0005923961503
0.026037006051731277      642.2514777376566
0.026238891444565628      641.4634141543092
0.02644045986526205       640.6364016461081
0.026641869595683754      639.7704402130533
0.02684327929182417       638.8655298551449
0.027044847609757647      637.9216705723828
0.02724673283158932       636.938862364767
0.027449092495796006      635.9171052322974
0.02765135518998453       634.9201250981133
0.027853143803698084      633.9148932417951
0.028054615743803996      632.9014096633427
0.028255929159991804      631.8796743627563
0.028457242575555555      630.8496873400358
0.028658714513790734      629.8114485951811
0.028860503124391312      628.7649581281925
0.029062765814231884      627.7102159390697
0.029265100752448706      626.6612539036505
0.02946696141141544       625.6370752152183
0.029668505276199596      624.6376798737728
0.029869890575077548      623.6630678793141
0.03007127591008127       622.7132392318423
0.030272819883157453      621.7881939313573
0.03047468072232762       620.887931977859
0.030677015912237836      620.0124533713478
0.030879305594778746      619.209927219705
0.03108112103494649       618.4438992815086
0.031282619677010744      617.7143695567581
0.03148395970843373       617.021338045454
0.0316852996905265        616.3648047475959
0.031886798184716555      615.744769663184
0.032088613378814135      615.1612327922181
0.03229090271766436       614.6141941346984
0.03249314477533616       614.2438209637744
0.03269491316800606       613.9265314832423
0.03289636518952694       613.6623256931023
0.03309765887540427       613.4512035933542
0.033298952634071295      613.2931651839981
0.033500404873789524      613.1882104650341
0.03370217362955133       613.136339436462
0.03390441619436107       613.1375520982818
0.03410686840969767       613.2393978520515
0.03430884535332711       613.3946388062634
0.0345105048019665        613.6032749609172
0.034712005278138794      613.8653063160132
0.03491350567956333       614.1807328715512
0.03511516490413611       614.5495546275313
0.035317141474908095      614.9717715839535
0.03551959316946952       615.4473837408177
0.035722216260139425      616.0602859236936
0.03592436286389621       616.7140360974665
0.036126191200505704      617.4086342621365
0.03632786023882611       618.1440804177034
0.03652952932442421       618.9203745641673
0.036731357802754806      619.7375167015284
0.03693350464234149       620.5955068297862
0.03713612806239678       621.4943449489413
0.03733848789969145       622.4526578364068
0.037540373227224554      623.4309266257403
0.03774194158292153       624.4291513169417
0.03794335124849304       625.4473319100109
0.03814476087977932       626.485468404948
0.03834632913270157       627.5435608017531
0.03854821428921239       628.621609100426
0.038750573887637245      629.7196133009669
0.03895283596123875       630.8806056359069
0.039154623958694366      632.0287408311906
0.039356095285438375      633.1640188868181
0.03955740808971597       634.2864398027892
0.03975872089337115       635.3960035791041
0.03996019221824938       636.4927102157626
0.04016198021260023       637.576559712765
0.04036424228186526       638.6475520701109
0.040566577948397485      639.7054778080793
0.040768439330593605      640.7294334528397
0.04096998391520435       641.719419004392
0.04117136993220262       642.6754344627362
0.04137275598532357       643.5974798278723
0.04157430067821714       644.4855550998005
0.04177616224060133       645.3396602785206
0.0419784981588055        646.1597953640327
0.04218078754816035       646.963344526755
0.04238260269718259       647.7062025935056
0.04258410104946696       648.3883695642844
0.04278544079179545       649.0098454390915
0.04298678048479618       649.5706302179267
0.043188278689213704      650.0707239007904
0.043390093592177985      650.5101264876822
0.04359238263785921       650.8888379786023
0.043794623705544454      651.3160709827092
0.04399639111513442       651.676777596903
0.04419784215819482       651.9709578211833
0.04439913486792596       652.1986116555503
0.044600427650446826      652.359739100004
0.04480187891170468       652.4543401545444
0.045003646684386715      652.4824148191716
0.04520588825921017       652.4439630938854
