% Model:              brazing.mph
% Version:            COMSOL 5.3.0.223
% Date:               Oct 23 2018, 11:12
% Dimension:          1
% Nodes:              161
% Expressions:        1
% Description:        Line graph
% x                       Height
0                         630.9638681694472
1.9693985890610136E-4     630.9327040050206
3.9298030043864816E-4     630.9121337708742
5.884188308682271E-4      630.9021574670084
7.835557095112735E-4      630.9027750934229
9.786925881542028E-4      630.9139866501177
0.0011741311185834375     630.9357921370931
0.0013701715601154056     630.9681915543488
0.0015671114190207022     631.0111849018849
0.0017642608961497635     630.7738117043644
0.0019605081241513326     630.5330097930506
0.0021561515411346144     630.2887791679434
0.002351492352702621      630.0411198290428
0.0025468331642698894     629.7900317763488
0.0027424765812509564     629.5355150098613
0.0029387238092488436     629.2775695295807
0.0031358732863727766     629.0161953355065
0.0033326885608882563     628.649765223029
0.0035286060983021257     628.2886027442912
0.0037239228519497995     627.9327078992931
0.003918938519653848      627.5820806880346
0.004113954187357973      627.2367211105158
0.004309270941005876      626.8966291667366
0.004505188478420127      626.561804856697
0.004702003752936137      626.2322481803972
0.004899138702461749      625.8864461155065
0.005095371599302965      625.5574081669745
0.005291000816927052      625.2451343348007
0.005486327495291825      624.9496246189855
0.005681654173656831      624.6708790195286
0.0058772833912816074     624.4088975364302
0.0060735162881239745     624.1636801696902
0.006270651237651189      623.9352269193087
0.006467582778148322      623.7581815165536
0.006663615013526554      623.6139539597907
0.006859045413116663      623.50254424902
0.0070541741987231454     623.4239523842415
0.007249302984329781      623.3781783654553
0.007444733383920351      623.3652221926611
0.007640765619299351      623.3850838658593
0.007837697159797551      623.4377633850497
0.008034634474091872      623.4347712974542
0.008230672405352359      623.468547025171
0.008426108448549354      623.5390905682005
0.008621242851524007      623.6464019265424
0.008816377254498534      623.7904811001966
0.009011813297695145      623.9713280891636
0.009207851228955002      624.1889428934429
0.00940478854324844       624.4433255130348
0.00960192671152544       624.7539736922389
0.00979816278359587       625.0798643297347
0.009993795147248338      625.4209974255224
0.010189124956984269      625.7773729796018
0.010384454766719743      626.1489909919729
0.010580087130370853      626.5358514626358
0.010776323202439026      626.9379543915907
0.01097346137071288       627.3552997788372
0.011170281912174305      627.7259721177381
0.011366204645540166      628.1067078036666
0.011561526547508357      628.4975068366223
0.011756547339625332      628.8983692166055
0.011951568131742307      629.309294943616
0.0121468900337105        629.730284017654
0.012342812767076368      630.1613364387192
0.0125396333085378        630.6024522068119
0.012736771215691979      630.8869048502207
0.012933007030171178      631.1702243947512
0.013128639138602195      631.4524108404034
0.013323968694306592      631.7334641871773
0.013519298250011432      632.013384435073
0.013714930358443784      632.2921715840904
0.0139111661729252        632.5698256342295
0.014108304080082462      632.8463465854903
0.014305241249097643      632.8403768641958
0.014501279037039759      632.8375128916058
0.014696714938233999      632.8377546677202
0.014891849199866372      632.8411021925391
0.015086983461498874      632.8475554660622
0.015282419362693495      632.8571144882898
0.01547845715063625       632.8697792592219
0.015675394319652317      632.8855497788583
0.015872325504405583      632.5161983415383
0.01606835738884011       632.1516872668667
0.016263787440706973      631.7920165548433
0.016458915880206496      631.437186205468
0.016654044319705866      631.087196218741
0.016849474371572262      630.7420465946624
0.017045506256006017      630.4017373332318
0.017242437440758204      630.0662684344496
0.01743957168037589       629.5073492653041
0.017635803876907424      628.9391987033492
0.01783143240066149       628.3618167485848
0.018026758388388308      627.775203401011
0.01822208437611492       627.1793586606277
0.01841771289986836       626.574282527435
0.018613945096398854      625.9599750014328
0.018811079336015085      625.336436082621
0.019007894687321662      624.6744357959977
0.01920381230049143       624.0149239252536
0.019399129129200405      623.3579004703882
0.01959414487161704       622.7033654314021
0.01978916061403359       622.0513188082948
0.01998447744274231       621.4017606010665
0.020180395055911654      620.7546908097172
0.020377210407217645      620.110109434247
0.020574360469106157      619.5278720241805
0.020770608273960874      618.9667323724914
0.020966252262493188      618.4266904791797
0.021161593642948652      617.9077463442454
0.021356935023404883      617.4098999676885
0.021552579011939476      616.933151349509
0.021748826816797996      616.4775004897068
0.021945976878691802      616.042947388282
0.022142917141692885      615.709063382844
0.022338957981867254      615.4185986997975
0.022534396907280062      615.1715533391422
0.02272953417907009       614.9679273008784
0.02292467145086023       614.8077205850059
0.02312011037627338       614.6909331915248
0.02331615121644832       614.617565120435
0.023513091479450195      614.5876163717367
0.023710025135207962      614.5206718022703
0.02390605945730262       614.5022763981785
0.024101491924457957      614.5324301594613
0.024296622768016963      614.6111330861187
0.024491753611575823      614.7383851781507
0.02468718607873073       614.9141864355572
0.024883220400824673      615.1385368583383
0.025080154056581445      615.4114364464939
0.025277299572591536      615.7914359987873
0.025473542893039384      616.1930136373506
0.02566918243840792       616.616169362184
0.025864519396400307      617.0609031732874
0.026059856354392216      617.5272150706609
0.026255495899759323      618.0151050543043
0.026451739220204794      618.5245731242177
0.026648884736211575      619.0556192804011
0.02684569473774919       619.6337257947354
0.027041607073256636      620.2175997474424
0.027236918672681274      620.8072411385218
0.027431929210095855      621.4026499679738
0.027626939747510428      622.0038262357984
0.027822251346935042      622.6107699419954
0.028018163682442445      623.2234810865649
0.028214973683980002      623.8419596695069
0.028412120943583204      624.4301789198905
0.028608365984047285      625.0076310194746
0.02880400723361381       625.5743159682589
0.02899934588786498       626.1302337662437
0.02919468454211669       626.6753844134287
0.029390325791684838      627.2097679098141
0.02958657083215161       627.7333842553998
0.029783718091758563      628.2462334501857
0.029980652759780888      628.5861532759737
0.030176688080480362      628.9260115343674
0.030372121537075924      629.2658082253666
0.03056725336547531       629.6055433489715
0.030762385193874833      629.9452169051821
0.030957818650470807      630.2848288939981
0.031153853971170976      630.6243793154199
0.031350788639194264      630.9638681694472
