% Model:              brazing.mph
% Version:            COMSOL 5.3.0.223
% Date:               Oct 23 2018, 11:18
% Dimension:          1
% Nodes:              225
% Expressions:        1
% Description:        Line graph
% x                       Height
0                         628.7319042630176
2.1191841480136804E-4     628.6452463102302
4.2353438892247565E-4     628.5196908119793
6.349689892252786E-4      628.3552377682647
8.463435942227858E-4      628.1518871790864
0.001057779685752053      627.9096390444447
0.001269398639759412      627.628493364339
0.001481321517995422      627.3084501387698
0.0017252358262731596     626.8813315212567
0.0019686866163640313     626.4233480134924
0.0022118589563155885     625.9344996154764
0.002454938550168189      625.4147863272091
0.0026981113144448556     624.8642081486908
0.0029415629522145732     624.2827650799205
0.0031854785295931678     623.6704571208992
0.0034450106912723537     622.9152908156223
0.0037039863009040125     622.1286671061345
0.003962627412610827      621.3105859924357
0.0042211569424298        620.4610474745263
0.004479798094906585      619.5800515524062
0.004738773785972872      618.667598226075
0.004998306069542035      617.7236874955332
0.005274868491808245      616.6188258887995
0.005550758931995686      615.4969620522496
0.0058262454501036105     614.3580959858832
0.006101597285810183      613.2022276897005
0.006377084073678616      612.0293571637018
0.006652975052596927      610.8394844078863
0.006929538280995558      609.6326094222546
0.007206101510950518      608.3822013392491
0.007481992491406557      607.1493698744691
0.007757479280801014      605.9341150279145
0.00803283111802884       604.7364367995849
0.008308317637660222      603.5563351894812
0.008584208079380276      602.3938101976025
0.008860770503195153      601.2488618239494
0.009120302815147717      600.1741318919514
0.00937927853441616       599.1407323695231
0.009637919714987194      598.1486632566639
0.009896449272866283      597.1979245533743
0.010155090412673047      596.2885162596542
0.010414066050518256      595.4204383755031
0.01067359824059789       594.5936909009216
0.010917512776055054      593.8406681148633
0.011160965100129169      593.138853671448
0.011404139717480647      592.4882475706758
0.01164722176512739       591.8888498125465
0.011890396591516505      591.3406603970607
0.012133849333188814      590.8436793242174
0.012377764493855997      590.3979065940174
0.01258968694000722       590.0528095500176
0.012801305803204788      589.7485150200364
0.013012742322906452      589.4850230040735
0.013224118052332232      589.2623335021291
0.01343555464954572       589.0804465142036
0.013647173667633327      588.9393620402963
0.013859096345786744      588.8390800804076
0.014071014760598048      588.7957306852189
0.014282630734729056      588.7923779435785
0.01449406533504172       588.8290218554865
0.014705439940049088      588.9056624209433
0.014916876031588231      589.0222996399485
0.015128494985605482      589.178933512502
0.015340417863851432      589.3755640386041
0.01558433217214941       589.620340243133
0.015827782962260412      589.9236860338785
0.016070955302232025      590.285601410841
0.016314034896104664      590.7060863740202
0.0165572076604014        591.1851409234163
0.01680065929819124       591.7227650590289
0.01704457487559009       592.3189587808586
0.01730410703726679       592.9695968256106
0.017563082646895985      593.6605492595929
0.01782172375860034       594.3918160828058
0.018080253288416847      595.1633972952492
0.01833889444089119       595.9752928969233
0.018597870131955005      596.8275028878276
0.018857402415521692      597.7200272679626
0.019133964837753384      598.6782277303441
0.019409855277906563      599.6549646630438
0.019685341795980367      600.6502380660611
0.019960693631652874      601.6640479393964
0.0202361804194872        602.6963942830497
0.020512071398371242      603.7472770970206
0.020788634626735362      604.8166963813096
0.02106519785666259       605.8621775055904
0.021341088837091095      606.8959443070968
0.021616575626458134      607.917996785829
0.02189192746365859       608.928334941787
0.022167413983262562      609.9269587749711
0.02244330442495508       610.9138682853807
0.022719866848742224      611.8890634730162
0.022979399160698737      612.7069582577815
0.023238374879971102      613.502914271
0.023497016060546046      614.2769315126717
0.023755545618429033      615.0290099827964
0.02401418675823971       615.7591496813747
0.024273162396088833      616.4673506084057
0.024532694586172417      617.1536127638901
0.02477660912165014       617.7221844191973
0.02502006144574469       618.2576102724437
0.025263236063116538      618.7598903236291
0.025506318110783622      619.2290245727537
0.025749492937193107      619.6650130198179
0.02599294567888585       620.0678556648209
0.026236860839573585      620.4375525077633
0.026448783285734738      620.7045909355388
0.02666040214894219       620.9537136247249
0.026871838668653707      621.1849205753209
0.027083214398089334      621.3982117873273
0.027294650995312687      621.5935872607444
0.027506270013410168      621.7710469955712
0.02771819269157351       621.9305909918085
0.02793011110637494       622.0000237134974
0.028141727080496122      622.0503056958433
0.028353161680798985      622.0814369388461
0.028564536285796558      622.0934174425054
0.028775972377325904      622.086247206822
0.028987591331333325      622.0599262317949
0.029199514209569403      622.0144545174248
0.02944342851784522       621.8333035573153
0.02968687930793418       621.6100327061997
0.02993005164788383       621.344641964078
0.030173131241734534      621.0371313309504
0.0304163040060093        620.687500806817
0.0306597556437771        620.2957503916771
0.030903671221153783      619.8618800855314
0.031163203382828072      619.2429789106412
0.03142217899245488       618.5794313908381
0.03168082010415685       617.8712375261218
0.03193934963397098       617.1183973164926
0.032197990786442934      616.3209107619507
0.03245696647750436       615.4787778624955
0.032716498761068635      614.5919986181275
0.03299306118333142       613.4756393524341
0.03326895162351545       612.3384512076747
0.03354443814161999       611.1804341838492
0.03381978997732317       610.001588280958
0.034095276765188226      608.801913499001
0.03437116774410313       607.5814098379777
0.03464773097249833       606.3400772978888
0.034924294202460265      605.0298094064268
0.03520018518292322       603.7396016558589
0.03547567197232456       602.469454046185
0.035751023809559274      601.2193665774053
0.036026510329197556      599.9893392495197
0.036302400770924524      598.779372062528
0.03657896319474637       597.5894650164305
0.036838495506703706      596.4713846306958
0.03709747122597688       595.4056790790736
0.037356112406552636      594.3923483615638
0.03761464196443644       593.4313924781663
0.03787328310424792       592.5228114288817
0.03813225874209787       591.6666052137092
0.03839179093218227       590.8627738326494
0.03863570546763781       590.1351191371758
0.038879157791710306      589.4711407039367
0.03912233240906017       588.8708385329319
0.03936541445670531       588.3342126241616
0.039608589283092806      587.8612629776259
0.039852042024763494      587.4519895933242
0.04009595718542905       587.1063924712572
0.040307879631580334      586.8410699286926
0.04051949849477797       586.6265321581458
0.0407309350144797        586.4627791596166
0.040942310743905544      586.3498109331053
0.04115374734111909       586.287627478612
0.04136536635920676       586.2762287961361
0.04157728903736024       586.3156148856783
0.04178920745215007       586.4119424891574
0.042000823426259694      586.557550830607
0.042212258026551035      586.7524399100272
0.04242363263153709       586.996609727418
0.0426350687230549        587.2900602827795
0.042846687677050764      587.6327915761113
0.04305861055527523       588.0248036074139
0.04330252486354604       588.5025842180057
0.043545975653630026      589.0474033076041
0.04378914799357473       589.6592608762088
0.044032227587420474      590.3381569238202
0.04427540035169028       591.0840914504382
0.04451885198945311       591.8970644560625
0.044762767566824783      592.7770759406934
0.045022299728516735      593.7429216420386
0.04528127533816108       594.7549013977462
0.045539916449880535      595.8130152078162
0.045798445979712124      596.9172630722487
0.046057087132201545      598.0676449910441
0.04631606282328052       599.2641609642016
0.046575595106862454      600.5068109917216
0.04685215752913061       601.8317111469688
0.04712804796931999       603.1795407486253
0.04740353448742985       604.5502997966912
0.04767888632313835       605.9439882911663
0.04795437311100872       607.3606062320512
0.048230264089928976      608.8001536193449
0.048506827318329566      610.2626304530481
0.04878339054829114       611.6534847141336
0.049059281528753745      613.0241117581018
0.04933476831815475       614.3745115849524
0.0496101201553891        615.7046841946856
0.04988560667502701       617.0146295873016
0.05016149711675364       618.3043477627997
0.050438059540575134      619.5738387211806
0.05069759185254397       620.5970061190214
0.05095656757182859       621.5742985656186
0.05121520875241573       622.5057160609722
0.05147373831031092       623.391258605082
0.051732379450133786      624.2309261979484
0.05199135508799517       625.0247188395708
0.05225088727809108       625.7726365299499
0.0524948018135407        626.3570784498188
0.052738254137607306      626.8833038736684
0.05298142875495131       627.3513128014984
0.05322451080259058       627.7611052333087
0.0534676856289722        628.1126811691
0.05371113837063701       628.4060406088714
0.05395505353129665       628.6411835526235
0.05416697597743634       628.77813662484
0.054378594840622414      628.8737587068127
0.05459003136031263       628.9280497985413
0.05480140708972696       628.9410099000263
0.05501284368692898       628.9126390112674
0.0552244627050051        628.8429371322644
0.05543638538314697       628.7319042630176
