% Model:              brazing.mph
% Version:            COMSOL 5.3.0.223
% Date:               Oct 23 2018, 11:12
% Dimension:          1
% Nodes:              225
% Expressions:        1
% Description:        Line graph
% x                       Height
0                         617.849611478256
2.1191841480136804E-4     617.7647094026913
4.2353438892247565E-4     617.6409653429411
6.349689892252786E-4      617.4783792990048
8.463435942227858E-4      617.2769512708829
0.001057779685752053      617.0366812585755
0.001269398639759412      616.757569262082
0.001481321517995422      616.439615281403
0.0017252358262731596     616.0150886562965
0.0019686866163640313     615.5596884672553
0.0022118589563155885     615.0734147142796
0.002454938550168189      614.5562673973694
0.0026981113144448556     614.0082465165249
0.0029415629522145732     613.4293520717456
0.0031854785295931678     612.8195840630319
0.0034450106912723537     612.0673543669362
0.0037039863009040125     611.2836780848439
0.003962627412610827      610.468555216755
0.0042211569424298        609.6219857626696
0.004479798094906585      608.7439697225878
0.004738773785972872      607.8345070965092
0.004998306069542035      606.8935978844343
0.005274868491808245      605.7918097619681
0.005550758931995686      604.6730396664318
0.0058262454501036105     603.5372875978252
0.006101597285810183      602.3845535561484
0.006377084073678616      601.2148375414015
0.006652975052596927      600.0281395535841
0.006929538280995558      598.8244595926966
0.007206101510950518      597.5770435592209
0.007481992491406557      596.3471900280143
0.007757479280801014      595.1348989990769
0.00803283111802884       593.9401704724086
0.008308317637660222      592.7630044480097
0.008584208079380276      591.6034009258798
0.008860770503195153      590.4613599060191
0.009120302815147717      589.3893054050599
0.00937927853441616       588.358523117027
0.009637919714987194      587.36901304192
0.009896449272866283      586.420775179739
0.010155090412673047      585.5138095304845
0.010414066050518256      584.6481160941559
0.01067359824059789       583.8236948707533
0.010917512776055054      583.0729568962867
0.011160965100129169      582.3733828602928
0.011404139717480647      581.7249727627718
0.01164722176512739       581.1277266037237
0.011890396591516505      580.5816443831486
0.012133849333188814      580.086726101046
0.012377764493855997      579.6429717574164
0.01258968694000722       579.2996590476127
0.012801305803204788      578.9971007080331
0.013012742322906452      578.735296738677
0.013224118052332232      578.5142471395448
0.01343555464954572       578.3339519106365
0.013647173667633327      578.1944110519515
0.013859096345786744      578.0956245634907
0.014071014760598048      578.0537361847381
0.014282630734729056      578.0517976667261
0.01449406533504172       578.0898090094546
0.014705439940049088      578.1677702129239
0.014916876031588231      578.2856812771339
0.015128494985605482      578.4435422020844
0.015340417863851432      578.6413529877757
0.01558433217214941       578.8876591374349
0.015827782962260412      579.19241343579
0.016070955302232025      579.5556158828408
0.016314034896104664      579.9772664785879
0.0165572076604014        580.457365223031
0.01680065929819124       580.99591211617
0.01704457487559009       581.592907158005
0.01730410703726679       582.2445742036009
0.017563082646895985      582.936476131145
0.01782172375860034       583.6686129406372
0.018080253288416847      584.4409846320777
0.01833889444089119       585.2535912054667
0.018597870131955005      586.1064326608036
0.018857402415521692      586.9995089980889
0.019133964837753384      587.9580260607137
0.019409855277906563      588.9350332104204
0.019685341795980367      589.9305304472091
0.019960693631652874      590.9445177710799
0.0202361804194872        591.9769951820331
0.020512071398371242      593.027962680068
0.020788634626735362      594.0974202651851
0.02106519785666259       595.1423509222126
0.021341088837091095      596.175534808788
0.021616575626458134      597.1969719249112
0.02189192746365859       598.2066622705821
0.022167413983262562      599.2046058458011
0.02244330442495508       600.1908026505677
0.022719866848742224      601.1652526848821
0.022979399160698737      601.9820691553681
0.023238374879971102      602.7769223961626
0.023497016060546046      603.5498124072654
0.023755545618429033      604.3007391886769
0.02401418675823971       605.029702740397
0.024273162396088833      605.7367030624254
0.024532694586172417      606.4217401547623
0.02477660912165014       606.9887685626043
0.02502006144574469       607.5226116394819
0.025263236063116538      608.0232693853952
0.025506318110783622      608.4907418003444
0.025749492937193107      608.9250288843294
0.02599294567888585       609.32613063735
0.026236860839573585      609.6940470594064
0.026448783285734738      609.9594736452841
0.02666040214894219       610.206945178479
0.026871838668653707      610.4364616589911
0.027083214398089334      610.6480230868206
0.027294650995312687      610.8416294619677
0.027506270013410168      611.0172807844316
0.02771819269157351       611.174977054213
0.02793011110637494       611.2425891533896
0.028141727080496122      611.2910025973976
0.028353161680798985      611.3202173862363
0.028564536285796558      611.3302335199063
0.028775972377325904      611.3210509984077
0.028987591331333325      611.2926698217397
0.029199514209569403      611.245089989903
0.02944342851784522       611.0617692222156
0.02968687930793418       610.8362436492667
0.02993005164788383       610.5685132710565
0.030173131241734534      610.258578087585
0.0304163040060093        609.9064380988523
0.0306597556437771        609.512093304858
0.030903671221153783      609.0755437056025
0.031163203382828072      608.4540110947512
0.03142217899245488       607.7878107910116
0.03168082010415685       607.0769427943835
0.03193934963397098       606.3214071048673
0.032197990786442934      605.5212037224628
0.03245696647750436       604.6763326471697
0.032716498761068635      603.7867938789885
0.03299306118333142       602.6674322089394
0.03326895162351545       601.5272532763793
0.03354443814161999       600.3662570813076
0.03381978997732317       599.1844436237249
0.034095276765188226      597.9818129036312
0.03437116774410313       596.7583649210259
0.03464773097249833       595.5140996759096
0.034924294202460265      594.2007576460119
0.03520018518292322       592.9075223180181
0.03547567197232456       591.6343936919282
0.035751023809559274      590.3813717677422
0.036026510329197556      589.1484565454602
0.036302400770924524      587.935648025082
0.03657896319474637       586.7429462066077
0.036838495506703706      585.622160606235
0.03709747122597688       584.5537620800766
0.037356112406552636      583.5377506281324
0.03761464196443644       582.5741262504025
0.03787328310424792       581.6628889468872
0.03813225874209787       580.8040387175857
0.03839179093218227       579.9975755624988
0.03863570546763781       579.267623507832
0.038879157791710306      578.6013728419945
0.03912233240906017       577.9988235649862
0.03936541445670531       577.4599756768074
0.039608589283092806      576.9848291774583
0.039852042024763494      576.5733840669382
0.04009595718542905       576.2256403452477
0.040307879631580334      575.9586413133659
0.04051949849477797       575.7424426079984
0.0407309350144797        575.5770442291455
0.040942310743905544      575.4624461768069
0.04115374734111909       575.398648450983
0.04136536635920676       575.3856510516732
0.04157728903736024       575.4234539788781
0.04178920745215007       575.5182178108157
0.042000823426259694      575.6623042237567
0.042212258026551035      575.8557132177011
0.04242363263153709       576.0984447926488
0.0426350687230549        576.3904989486003
0.042846687677050764      576.731875685555
0.04305861055527523       577.1225750035132
0.04330252486354604       577.5990552420359
0.043545975653630026      578.1425967227384
0.04378914799357473       578.7531994456206
0.044032227587420474      579.4308634106826
0.04427540035169028       580.1755886179246
0.04451885198945311       580.987375067346
0.044762767566824783      581.8662227589474
0.045022299728516735      582.8311321062073
0.04528127533816108       583.8422454271977
0.045539916449880535      584.8995627219182
0.045798445979712124      586.0030839903692
0.046057087132201545      587.1528092325508
0.04631606282328052       588.3487384484623
0.046575595106862454      589.5908716381044
0.04685215752913061       590.9152547514282
0.04712804796931999       592.2626956353809
0.04740353448742985       593.6331942899625
0.04767888632313835       595.0267507151729
0.04795437311100872       596.4433649110124
0.048230264089928976      597.8830368774805
0.048506827318329566      599.3457666145777
0.04878339054829114       600.7366663963024
0.049059281528753745      602.1074780536223
0.04933476831815475       603.4582015865375
0.0496101201553891        604.7888369950479
0.04988560667502701       606.0993842791537
0.05016149711675364       607.3898434388544
0.050438059540575134      608.6602144741505
0.05069759185254397       609.6842636925186
0.05095656757182859       610.6624962971455
0.05121520875241573       611.5949122880312
0.05147373831031092       612.4815116651757
0.051732379450133786      613.3222944285794
0.05199135508799517       614.1172605782416
0.05225088727809108       614.8664101141628
0.0524948018135407        615.452205607979
0.052738254137607306      615.9798587693259
0.05298142875495131       616.449369598203
0.05322451080259058       616.8607380946107
0.0534676856289722        617.2139642585491
0.05371113837063701       617.5090480900177
0.05395505353129665       617.7459895890169
0.05416697597743634       617.8845993170308
0.054378594840622414      617.9819401780516
0.05459003136031263       618.0380121720789
0.05480140708972696       618.052815299113
0.05501284368692898       618.026349559154
0.0552244627050051        617.9586149522015
0.05543638538314697       617.849611478256
