% Model:              brazing.mph
% Version:            COMSOL 5.3.0.223
% Date:               Oct 23 2018, 10:46
% Dimension:          1
% Nodes:              225
% Expressions:        1
% Description:        Line graph
% x                       Height
0                         618.720542973301
2.1191841480136804E-4     618.6315475197375
4.2353438892247565E-4     618.5039621626274
6.349689892252786E-4      618.3377869019703
8.463435942227858E-4      618.1330217377666
0.001057779685752053      617.8896666700164
0.001269398639759412      617.607721698719
0.001481321517995422      617.2871868238752
0.0017252358262731596     616.8606260707539
0.0019686866163640313     616.4035193136401
0.0022118589563155885     615.9158665525337
0.002454938550168189      615.3976677874346
0.0026981113144448556     614.8489230183433
0.0029415629522145732     614.269632245259
0.0031854785295931678     613.6597954681823
0.0034450106912723537     612.9073938189758
0.0037039863009040125     612.1241793674601
0.003962627412610827      611.310152113635
0.0042211569424298        610.4653120575007
0.004479798094906585      609.5896591990572
0.004738773785972872      608.6831935383042
0.004998306069542035      607.7459150752421
0.005274868491808245      606.6460122624864
0.005550758931995686      605.5296226059717
0.0058262454501036105     604.3967461056981
0.006101597285810183      603.2473827616653
0.006377084073678616      602.0815325738741
0.006652975052596927      600.8991955423235
0.006929538280995558      599.7003716670141
0.007206101510950518      598.4555052613532
0.007481992491406557      597.2283522621674
0.007757479280801014      596.0189126694564
0.00803283111802884       594.8271864832204
0.008308317637660222      593.6531737034596
0.008584208079380276      592.4968743301735
0.008860770503195153      591.3582883633625
0.009120302815147717      590.2883716796127
0.00937927853441616       589.2596906571653
0.009637919714987194      588.27224529602
0.009896449272866283      587.326035596177
0.010155090412673047      586.4210615576366
0.010414066050518256      585.557323180398
0.01067359824059789       584.734820464462
0.010917512776055054      583.9856000280989
0.011160965100129169      583.2872251296072
0.011404139717480647      582.639695768987
0.01164722176512739       582.0430119462383
0.011890396591516505      581.4971736613612
0.012133849333188814      581.0021809143552
0.012377764493855997      580.558033705221
0.01258968694000722       580.2140712927201
0.012801305803204788      579.9107613362149
0.013012742322906452      579.6481038357055
0.013224118052332232      579.4260987911916
0.01343555464954572       579.2447462026736
0.013647173667633327      579.104046070151
0.013859096345786744      579.0039983936242
0.014071014760598048      578.9597842303602
0.014282630734729056      578.9554911280294
0.01449406533504172       578.9911190866318
0.014705439940049088      579.0666681061674
0.014916876031588231      579.1821381866365
0.015128494985605482      579.3375293280385
0.015340417863851432      579.532841530374
0.01558433217214941       579.7775124065503
0.015827782962260412      580.0799908033512
0.016070955302232025      580.4402767207764
0.016314034896104664      580.8583701588263
0.0165572076604014        581.3342711175009
0.01680065929819124       581.8679795967997
0.01704457487559009       582.4594955967232
0.01730410703726679       583.1053071639196
0.017563082646895985      583.7915117030005
0.01782172375860034       584.5181092139657
0.018080253288416847      585.2850996968152
0.01833889444089119       586.0924831515496
0.018597870131955005      586.9402595781679
0.018857402415521692      587.8284289766708
0.019133964837753384      588.7793166911305
0.019409855277906563      589.7491240825917
0.019685341795980367      590.7378511510542
0.019960693631652874      591.7454978965181
0.0202361804194872        592.7720643189837
0.020512071398371242      593.8175504184503
0.020788634626735362      594.8819561949185
0.02106519785666259       595.9183330285234
0.021341088837091095      596.9437136067148
0.021616575626458134      597.9580979294923
0.02189192746365859       598.9614859968563
0.022167413983262562      599.9538778088069
0.02244330442495508       600.9352733653434
0.022719866848742224      601.9056726664666
0.022979399160698737      602.7161953674911
0.023238374879971102      603.5058205112416
0.023497016060546046      604.2745480977185
0.023755545618429033      605.0223781269214
0.02401418675823971       605.7493105988507
0.024273162396088833      606.4553455135059
0.024532694586172417      607.1404828708875
0.02477660912165014       607.7052678468176
0.02502006144574469       608.237502301074
0.025263236063116538      608.737186233656
0.025506318110783622      609.2043196445642
0.025749492937193107      609.6389025337987
0.02599294567888585       610.0409349013589
0.026236860839573585      610.4104167472453
0.026448783285734738      610.676843917469
0.02666040214894219       610.9259218108584
0.026871838668653707      611.1576504274136
0.027083214398089334      611.3720297671344
0.027294650995312687      611.5690598300215
0.027506270013410168      611.7487406160739
0.02771819269157351       611.9110721252922
0.02793011110637494       611.9826962379354
0.028141727080496122      612.0356748830765
0.028353161680798985      612.0700080607153
0.028564536285796558      612.085695770852
0.028775972377325904      612.0827380134868
0.028987591331333325      612.0611347886191
0.029199514209569403      612.0208860962495
0.02944342851784522       611.8474022981917
0.02968687930793418       611.6316158134744
0.02993005164788383       611.3735266420971
0.030173131241734534      611.0731347840601
0.0304163040060093        610.7304402393639
0.0306597556437771        610.3454430080076
0.030903671221153783      609.9181430899918
0.031163203382828072      609.3067820684688
0.03142217899245488       608.651197233525
0.03168082010415685       607.9513885851603
0.03193934963397098       607.2073561233747
0.032197990786442934      606.4190998481686
0.03245696647750436       605.5866197595415
0.032716498761068635      604.7099158574936
0.03299306118333142       603.6027693816612
0.03326895162351545       602.4752065736025
0.03354443814161999       601.3272274333169
0.03381978997732317       600.1588319608051
0.034095276765188226      598.9700201560669
0.03437116774410313       597.7607920191017
0.03464773097249833       596.5311475499102
0.034924294202460265      595.2277389497436
0.03520018518292322       593.9447993770215
0.03547567197232456       592.6823288317436
0.035751023809559274      591.4403273139101
0.036026510329197556      590.2187948235213
0.036302400770924524      589.0177313605766
0.03657896319474637       587.8371369250765
0.036838495506703706      586.7252875149695
0.03709747122597688       585.6656860690686
0.037356112406552636      584.6583325873738
0.03761464196443644       583.7032270698853
0.03787328310424792       582.8003695166034
0.03813225874209787       581.9497599275273
0.03839179093218227       581.1513983026576
0.03863570546763781       580.4284947626188
0.038879157791710306      579.7687665163955
0.03912233240906017       579.1722135639878
0.03936541445670531       578.638835905396
0.039608589283092806      578.1686335406199
0.039852042024763494      577.7616064696592
0.04009595718542905       577.4177546925143
0.040307879631580334      577.1542064263095
0.04051949849477797       576.9411557802318
0.0407309350144797        576.7786027542813
0.040942310743905544      576.666547348458
0.04115374734111909       576.6049895627621
0.04136536635920676       576.5939293971932
0.04157728903736024       576.6333668517515
0.04178920745215007       576.7292350268802
0.042000823426259694      576.8741316035758
0.042212258026551035      577.0680565818383
0.04242363263153709       577.3110099616673
0.0426350687230549        577.6029917430636
0.042846687677050764      577.9440019260263
0.04305861055527523       578.3340405105561
0.04330252486354604       578.8108832562183
0.043545975653630026      579.3539988038688
0.04378914799357473       579.9633871535073
0.044032227587420474      580.6390483051339
0.04427540035169028       581.3809822587488
0.04451885198945311       582.1891890143515
0.044762767566824783      583.0636685719426
0.045022299728516735      584.0235257647425
0.04528127533816108       585.0295279417367
0.045539916449880535      586.0816751029246
0.045798445979712124      587.1799672483066
0.046057087132201545      588.3244043778831
0.04631606282328052       589.514986491653
0.046575595106862454      590.7517135896172
0.04685215752913061       592.0675131316352
0.04712804796931999       593.4064855231297
0.04740353448742985       594.7686307641005
0.04767888632313835       596.1539488545479
0.04795437311100872       597.5624397944721
0.048230264089928976      598.9941035838722
0.048506827318329566      600.4489402227491
0.04878339054829114       601.8285568336366
0.049059281528753745      603.1883296589281
0.04933476831815475       604.5282586986232
0.0496101201553891        605.848343952722
0.04988560667502701       607.1485854212251
0.05016149711675364       608.4289831041315
0.050438059540575134      609.689537001442
0.05069759185254397       610.7031084844934
0.05095656757182859       611.671076529546
0.05121520875241573       612.5934411365997
0.05147373831031092       613.4702023056548
0.051732379450133786      614.3013600367113
0.05199135508799517       615.0869143297688
0.05225088727809108       615.8268651848276
0.0524948018135407        616.404141549634
0.052738254137607306      616.9234716379544
0.05298142875495131       617.3848554497887
0.05322451080259058       617.7882929851366
0.0534676856289722        618.133784243999
0.05371113837063701       618.4213292263747
0.05395505353129665       618.6509279322645
0.05416697597743634       618.7838114249248
0.054378594840622414      618.8757154219858
0.05459003136031263       618.9266399234474
0.05480140708972696       618.9365849293097
0.05501284368692898       618.905550439573
0.0552244627050051        618.8335364542365
0.05543638538314697       618.720542973301
