% Model:              brazing.mph
% Version:            COMSOL 5.3.0.223
% Date:               Oct 23 2018, 10:45
% Dimension:          1
% Nodes:              225
% Expressions:        1
% Description:        Line graph
% x                       Height
0                         633.7400929232281
2.1191841480136804E-4     633.6552846291436
4.2353438892247565E-4     633.5314356744807
6.349689892252786E-4      633.3685460592394
8.463435942227858E-4      633.16661578342
0.001057779685752053      632.9256448470223
0.001269398639759412      632.645633250046
0.001481321517995422      632.3265809924916
0.0017252358262731596     631.9001127671055
0.0019686866163640313     631.4426196605494
0.0022118589563155885     630.9541016728232
0.002454938550168189      630.4345588039268
0.0026981113144448556     629.8839910538608
0.0029415629522145732     629.3023984226243
0.0031854785295931678     628.6897809102178
0.0034450106912723537     627.9341863746541
0.0037039863009040125     627.146829601062
0.003962627412610827      626.3277105894413
0.0042211569424298        625.476829339792
0.004479798094906585      624.5941858521145
0.004738773785972872      623.679780126408
0.004998306069542035      622.7336121626732
0.005274868491808245      621.6271454138729
0.005550758931995686      620.5034220040193
0.0058262454501036105     619.3624419331119
0.006101597285810183      618.2042052011511
0.006377084073678616      617.0287118081369
0.006652975052596927      615.835961754069
0.006929538280995558      614.6259550389477
0.007206101510950518      613.3733827907939
0.007481992491406557      612.1382964705592
0.007757479280801014      610.9206960782434
0.00803283111802884       609.7205816138468
0.008308317637660222      608.5379530773695
0.008584208079380276      607.3728104688109
0.008860770503195153      606.2251537881715
0.009120302815147717      605.148310988108
0.00937927853441616       604.112816702125
0.009637919714987194      603.1186709302222
0.009896449272866283      602.1658736723996
0.010155090412673047      601.2544249286576
0.010414066050518256      600.3843246989957
0.01067359824059789       599.5555729834141
0.010917512776055054      598.8007253667307
0.011160965100129169      598.0972261715509
0.011404139717480647      597.4450753978745
0.01164722176512739       596.8442730457016
0.011890396591516505      596.2948191150324
0.012133849333188814      595.7967136058663
0.012377764493855997      595.3499565182038
0.01258968694000722       595.0041171782196
0.012801305803204788      594.6991384366573
0.013012742322906452      594.4350202935169
0.013224118052332232      594.2117627487982
0.01343555464954572       594.0293658025016
0.013647173667633327      593.8878294546265
0.013859096345786744      593.7871537051734
0.014071014760598048      593.7438683180541
0.014282630734729056      593.7406085539371
0.01449406533504172       593.7773744128226
0.014705439940049088      593.8541658947105
0.014916876031588231      593.970982999601
0.015128494985605482      594.1278257274937
0.015340417863851432      594.3246940783889
0.01558433217214941       594.5691574295322
0.015827782962260412      594.8725032632353
0.016070955302232025      595.2347315794984
0.016314034896104664      595.6558423783218
0.0165572076604014        596.1358356597053
0.01680065929819124       596.6747114236487
0.01704457487559009       597.2724696701522
0.01730410703726679       597.9247012875303
0.017563082646895985      598.6172047342263
0.01782172375860034       599.34998001024
0.018080253288416847      600.1230271155716
0.01833889444089119       600.9363460502213
0.018597870131955005      601.7899368141883
0.018857402415521692      602.6837994074735
0.019133964837753384      603.6444977103282
0.019409855277906563      604.6235559112577
0.019685341795980367      605.6209740102619
0.019960693631652874      606.636752007341
0.0202361804194872        607.6708899024952
0.020512071398371242      608.7233876957238
0.020788634626735362      609.7942453870274
0.02106519785666259       610.8428143316956
0.021341088837091095      611.8793483710618
0.021616575626458134      612.9038475051257
0.02189192746365859       613.9163117338874
0.022167413983262562      614.9167410573474
0.02244330442495508       615.9051354755048
0.022719866848742224      616.8814949883603
0.022979399160698737      617.7016273707636
0.023238374879971102      618.499367489638
0.023497016060546046      619.2747153449828
0.023755545618429033      620.0276709367988
0.02401418675823971       620.7582342650859
0.024273162396088833      621.4664053298433
0.024532694586172417      622.1521841310719
0.02477660912165014       622.7214225156954
0.02502006144574469       623.2572540398342
0.025263236063116538      623.7596787034877
0.025506318110783622      624.2286965066562
0.025749492937193107      624.6643074493401
0.02599294567888585       625.0665115315386
0.026236860839573585      625.4353087532522
0.026448783285734738      625.7017421456317
0.02666040214894219       625.9500220399186
0.026871838668653707      626.1801484361131
0.027083214398089334      626.3921213342152
0.027294650995312687      626.5859407342252
0.027506270013410168      626.7616066361425
0.02771819269157351       626.9191190399675
0.02793011110637494       626.9867670873696
0.028141727080496122      627.035059418601
0.028353161680798985      627.0639960336613
0.028564536285796558      627.0735769325507
0.028775972377325904      627.0638021152695
0.028987591331333325      627.0346715818171
0.029199514209569403      626.986185332194
0.02944342851784522       626.8008779143394
0.02968687930793418       626.5735462524202
0.02993005164788383       626.3041903464365
0.030173131241734534      625.9928101963882
0.0304163040060093        625.6394058022756
0.0306597556437771        625.2439771640982
0.030903671221153783      624.8065242818565
0.031163203382828072      624.1836102351912
0.03142217899245488       623.5158959796568
0.03168082010415685       622.803381515253
0.03193934963397098       622.0460668419801
0.032197990786442934      621.2439519598382
0.03245696647750436       620.3970368688267
0.032716498761068635      619.5053215689463
0.03299306118333142       618.3844045314859
0.03326895162351545       617.2425132747909
0.03354443814161999       616.0796477988615
0.03381978997732317       614.8958081036976
0.034095276765188226      613.6909941892995
0.03437116774410313       612.4652060556666
0.03464773097249833       611.2184437027995
0.034924294202460265      609.90485533021
0.03520018518292322       608.6111837596856
0.03547567197232456       607.3374289912263
0.035751023809559274      606.083591024832
0.036026510329197556      604.8496698605031
0.036302400770924524      603.6356654982392
0.03657896319474637       602.4415779380404
0.036838495506703706      601.3206832340328
0.03709747122597688       600.2522443280775
0.037356112406552636      599.2362612201746
0.03761464196443644       598.2727339103237
0.03787328310424792       597.3616623985257
0.03813225874209787       596.5030466847796
0.03839179093218227       595.696886769086
0.03863570546763781       594.9672353577529
0.038879157791710306      594.3014972076644
0.03912233240906017       593.6996723188204
0.03936541445670531       593.1617606912207
0.039608589283092806      592.687762324866
0.039852042024763494      592.2776772197553
0.04009595718542905       591.9315053758894
0.040307879631580334      591.66559077155
0.04051949849477797       591.4506001553605
0.0407309350144797        591.2865335273204
0.040942310743905544      591.1733908874301
0.04115374734111909       591.1111722356897
0.04136536635920676       591.0998775720985
0.04157728903736024       591.1395068966573
0.04178920745215007       591.2363107078053
0.042000823426259694      591.3825185553197
0.042212258026551035      591.5781304392007
0.04242363263153709       591.8231463594483
0.0426350687230549        592.1175663160626
0.042846687677050764      592.461390309043
0.04305861055527523       592.8546183383903
0.04330252486354604       593.3332538007271
0.043545975653630026      593.8792720514065
0.04378914799357473       594.4926730904285
0.044032227587420474      595.1734569177936
0.04427540035169028       595.9216235335016
0.04451885198945311       596.7371729375521
0.044762767566824783      597.6201051299456
0.045022299728516735      598.58912398492
0.04528127533816108       599.6042922042272
0.045539916449880535      600.6656097878672
0.045798445979712124      601.7730767358399
0.046057087132201545      602.9266930481459
0.04631606282328052       604.1264587247844
0.046575595106862454      605.3723737657558
0.04685215752913061       606.7019629860401
0.04712804796931999       608.0543973781623
0.04740353448742985       609.4296769421225
0.04767888632313835       610.8278016779204
0.04795437311100872       612.2487715855567
0.048230264089928976      613.6925866650305
0.048506827318329566      615.1592469163425
0.04878339054829114       616.5558353790916
0.049059281528753745      617.9320488189426
0.04933476831815475       619.2878872358948
0.0496101201553891        620.6233506299487
0.04988560667502701       621.9384390011046
0.05016149711675364       623.2331523493616
0.050438059540575134      624.5074906747204
0.05069759185254397       625.5357504413533
0.05095656757182859       626.518028463311
0.05121520875241573       627.4543247405929
0.05147373831031092       628.3446392731994
0.051732379450133786      629.1889720611308
0.05199135508799517       629.9873231043863
0.05225088727809108       630.7396924029666
0.0524948018135407        631.3281929367555
0.052738254137607306      631.8583634451101
0.05298142875495131       632.3302039280301
0.05322451080259058       632.7437143855159
0.0534676856289722        633.0988948175675
0.05371113837063701       633.3957452241845
0.05395505353129665       633.6342656053673
0.05416697597743634       633.7738389615504
0.054378594840622414      633.8719272617612
0.05459003136031263       633.9285305059993
0.05480140708972696       633.9436486942652
0.05501284368692898       633.9172818265588
0.0552244627050051        633.8494299028795
0.05543638538314697       633.7400929232281
