% Model:              brazing.mph
% Version:            COMSOL 5.3.0.223
% Date:               Oct 23 2018, 11:06
% Dimension:          1
% Nodes:              225
% Expressions:        1
% Description:        Line graph
% x                       Height
0                         633.8471079673934
2.02242572596226E-4       633.8412930886869
4.040113375593453E-4      633.7756347229309
6.054635867748898E-4      633.6501328701253
8.067573541103817E-4      633.4647875302701
0.0010080510467017985     633.2195987033653
0.001209503071861434      632.9145663894109
0.0014112714639836859     632.5496905884069
0.001613513515825394      632.1249713003533
0.001815803045808458      631.7469882453173
0.0020176184164428694     631.3249448662284
0.0022191170764546647     630.8588411630865
0.0024204572175778446     630.3486771358915
0.00262179740518867       629.7944527846437
0.002823296204553664      629.1961681093426
0.0030251118070788686     628.5538231099888
0.003227401660948015      627.8674177865818
0.0034297372965816655     627.2008376788718
0.003631598594156443      626.4992553267051
0.0038331430353414214     625.7626707300819
0.004034528845142556      624.9910838890019
0.004235914622467191      624.1844948034651
0.004437458966299354      623.3429034734717
0.004639320101874085      622.4663098990217
0.004841655511239337      621.5547140801149
0.005043918276497792      620.7231057332281
0.005245706959792293      619.8799413975495
0.0054471789681153834     619.0252210730794
0.00564849245128538       618.1589447598174
0.005849805932728159      617.2811124577637
0.006051277935873691      616.3917241669184
0.00625306661055245       615.4907798872813
0.006455329363777148      614.5782796188525
0.0066576887471433525     613.6938634325544
0.0068595736811967985     612.8269106328983
0.007061141707903535      611.977421219884
0.007262551112883539      611.1453951935117
0.007463960555734714      610.3308325537814
0.007665528695965537      609.5337333006928
0.00786741381892875       608.7540974342464
0.0080697734661485        607.9919249544419
0.008272395437950266      607.3065680855682
0.008474540847339949      606.6428229181214
0.008676367906616744      606.0006894521017
0.008878035577337231      605.380167687509
0.009079703197965442      604.7812576243433
0.009281530107084053      604.2039592626046
0.00948367526660416       603.6482726022928
0.009686296889411194      603.114197643408
0.009888748367913874      602.7746021907365
0.010090724718905934      602.4711078319013
0.010292383720552634      602.2037145669028
0.010493883896490891      601.9724223957405
0.010695384145210549      601.7772313184147
0.010897043365029401      601.6181413349254
0.011099020079070253      601.4951524452724
0.011301472064648224      601.408264649456
0.011503924099142101      601.4189542579963
0.011705900863193036      601.4668174853365
0.011907560133099505      601.5518543314765
0.012109060430962503      601.6740647964165
0.012310560654077738      601.8334488801562
0.012512219699917606      602.0300065826957
0.012714196091111104      602.2637379040351
0.012916647604829811      602.5346428441743
0.013119269382981878      602.9479390473506
0.013321414683399362      603.3907317482945
0.013523241722808088      603.8630209470058
0.013724909467002238      604.3648066434848
0.013926577258472442      604.8960888377314
0.014128404439597363      605.4568675297455
0.014330549975836581      606.0471427195273
0.01453317208336263       606.6669144070765
0.014735531766219815      607.3521834142947
0.014937416940401616      608.0491094049129
0.015138985143475461      608.757692378931
0.015340394656791169      609.4779323363491
0.015541804135826716      610.2098292771672
0.015743372236141022      610.9533832013853
0.015945257239325793      611.7085941090033
0.01614761668334845       612.4754620000215
0.01634987940592303       613.3516000298762
0.016551668047823844      614.2152534835469
0.016753140015983766      615.066422361034
0.0169544534601584        615.9051066623371
0.017155766903708087      616.7313063874564
0.017357238869994664      617.5450215363918
0.017559027508778132      618.3462521091434
0.01776129022699866       619.1349981057112
0.017963625484858744      619.9492137301121
0.018165486461237414      620.739727801945
0.018367030641941378      621.5065403212103
0.018568416255992027      622.2496512879078
0.018769801906169285      622.9690607020375
0.018971346195167795      623.6647685635995
0.019173207351754082      624.3367748725938
0.019375542861313405      624.9850796290202
0.019577832661189145      625.6525667251173
0.019779648217873542      626.270324566335
0.019981146975907166      626.8383531526736
0.020182487123025287      627.3566524841328
0.020383827220813066      627.8252225607127
0.020585325830972126      628.2440633824136
0.020787141141585735      628.613174949235
0.020989430597769934      628.9325572611772
0.021191672662378012      629.3520029008534
0.021393441061935803      629.7112244775356
0.02159489309031221       630.0102219912238
0.021796186783028852      630.248995441918
0.021997480548535182      630.4275448296183
0.022198932795108938      630.5458701543246
0.022400701557758636      630.603971416037
0.02260294412950465       630.6018486147552
0.02280539620920995       630.6446890668952
0.023007373018156245      630.6251222445834
0.02320903233274668       630.5431481478198
0.023410532675187733      630.3987667766044
0.023612032942881025      630.1919781309372
0.023813692033404853      629.922782210818
0.024015668469493705      629.5911790162472
0.024218120028423832      629.1971685472246
0.024420742013481003      628.8248347240609
0.02462288751935683       628.4013024892209
0.02482471476325633       627.9265718427043
0.02502638271145666       627.4006427845115
0.025228050706933344      626.8235153146422
0.025429878092549915      626.1951894330965
0.025632023834248962      625.5156651398744
0.025834646148682177      624.7849424349758
0.026037006051731277      624.050730047042
0.026238891444565628      623.278050394634
0.02644045986526205       622.466903477752
0.026641869595683754      621.617289296396
0.02684327929182417       620.729207850566
0.027044847609757647      619.8026591402621
0.02724673283158932       618.8376431654841
0.027449092495796006      617.8341599262321
0.02765135518998453       616.8577958257562
0.027853143803698084      615.8730045318763
0.028054615743803996      614.8797860445926
0.028255929159991804      613.878140363905
0.028457242575555555      612.8680674898135
0.028658714513790734      611.849567422318
0.028860503124391312      610.8226401614187
0.029062765814231884      609.7872857071155
0.029265100752448706      608.7571743043325
0.02946696141141544       607.7512866382339
0.029668505276199596      606.7696227088198
0.029869890575077548      605.8121825160905
0.03007127591008127       604.8789660600457
0.030272819883157453      603.9699733406854
0.03047468072232762       603.0852043580097
0.030677015912237836      602.2246591120186
0.030879305594778746      601.4370552432761
0.03108112103494649       600.6847116168339
0.031282619677010744      599.967628232692
0.03148395970843373       599.2858050908504
0.0316852996905265        598.6392421913092
0.031886798184716555      598.0279395340682
0.032088613378814135      597.4518971191277
0.03229090271766436       596.9111149464873
0.03249314477533616       596.5478233774517
0.03269491316800606       596.2361837587273
0.03289636518952694       595.9761960903141
0.03309765887540427       595.7678603722122
0.033298952634071295      595.6111766044215
0.033500404873789524      595.5061447869421
0.03370217362955133       595.4527649197738
0.03390441619436107       595.4510370029168
0.03410686840969767       595.5491807505445
0.03430884535332711       595.6993074051042
0.0345105048019665        595.9014169665958
0.034712005278138794      596.1555094350193
0.03491350567956333       596.4615848103748
0.03511516490413611       596.8196430926623
0.035317141474908095      597.2296842818816
0.03551959316946952       597.6917083780331
0.035722216260139425      598.2910843752659
0.03592436286389621       598.9301863919559
0.036126191200505704      599.6090144281029
0.03632786023882611       600.3275684837071
0.03652952932442421       601.0858485587684
0.036731357802754806      601.8838546532867
0.03693350464234149       602.7215867672622
0.03713612806239678       603.5990449006949
0.03733848789969145       604.5358327272219
0.037540373227224554      605.4919414282474
0.03774194158292153       606.4673710037715
0.03794335124849304       607.4621214537943
0.03814476087977932       608.4761927783157
0.03834632913270157       609.5095849773355
0.03854821428921239       610.562298050854
0.038750573887637245      611.6343319988711
0.03895283596123875       612.7709503746759
0.039154623958694366      613.8947355086362
0.039356095285438375      615.0056874007522
0.03955740808971597       616.1038060510239
0.03975872089337115       617.1890914594511
0.03996019221824938       618.261543626034
0.04016198021260023       619.3211625507724
0.04036424228186526       620.3679482336667
0.040566577948397485      621.4015859298133
0.040768439330593605      622.4019739722995
0.04096998391520435       623.3691123611254
0.04117136993220262       624.3030010962909
0.04137275598532357       625.203640177796
0.04157430067821714       626.0710296056408
0.04177616224060133       626.9051693798252
0.0419784981588055        627.7060595003492
0.04218078754816035       628.4921479999529
0.04238260269718259       629.2182738100744
0.04258410104946696       629.8844369307136
0.04278544079179545       630.4906373618709
0.04298678048479618       631.0368751035459
0.043188278689213704      631.5231501557388
0.043390093592177985      631.9494625184494
0.04359238263785921       632.315812191678
0.043794623705544454      632.7356452412298
0.04399639111513442       633.0902151257566
0.04419784215819482       633.3795218452585
0.04439913486792596       633.6035653997354
0.044600427650446826      633.7623457891874
0.04480187891170468       633.8558630136143
0.045003646684386715      633.8841170730165
0.04520588825921017       633.8471079673934
