% Model:              brazing.mph
% Version:            COMSOL 5.3.0.223
% Date:               Oct 22 2018, 14:44
% Dimension:          1
% Nodes:              145
% Expressions:        1
% Description:        Line graph
% x                       Height
0                         605.5569499037292
1.8037553861809572E-4     605.8194158487015
3.5951128344368776E-4     606.0277961805668
5.377561773732229E-4      606.1820908993257
7.154644111300318E-4      606.2823000049777
8.929933875627798E-4      606.3284234975232
0.0010707015910786408     606.3204613769619
0.0012489464247083767     606.258413643294
0.0014280820795340731     606.1422802965194
0.0016084574989771061     605.972061336638
0.0017793134314883058     605.9065661804482
0.0019491114898538484     605.8162192031806
0.002118149876008701      605.7010204048356
0.0022867308232763497     605.5609697854131
0.002455159027530182      605.3960673449133
0.0026237400128558564     605.2063130833357
0.0027927784749207734     604.9917070006807
0.0029625766466419693     604.752249096948
0.0031334327293582195     604.487939372138
0.0033042867504275058     604.3130170857276
0.0034740828875811486     604.1328325770962
0.0036431193341009516     603.9473858462446
0.0038116983146850476     603.7566768931724
0.003980124516686077      603.5607057178796
0.004148703455848711      603.3594723203662
0.004317739819749776      603.1529767006324
0.004487535833529769      602.9412188586778
0.004658389691119368      602.7241987945029
0.0048387629974717405     602.6028088004755
0.005017896580971026      602.4861427804507
0.005196139373513023      602.3742007344289
0.0053738455543625        602.2669826624099
0.005551372514551955      602.1644885643937
0.005729078726427549      602.0667184403803
0.005907321580834967      601.9736722903697
0.006086455256670912      601.8853501143619
0.006266828685292636      601.801751912357
0.0064472042239161545     601.9509730083203
0.0066263399687470585     602.1081032571816
0.00680458486268183       602.2731426589411
0.0069822930964438265     602.4460912135987
0.007159822072881748      602.6269489211545
0.007337530276402798      602.8157157816084
0.007515775110037768      603.0123917949604
0.007694910764868775      603.2169769612104
0.007875286184317232      603.4294712803587
0.008046142116827224      603.7019137074159
0.008215940175191578      603.9657794032463
0.008384978561345261      604.2210683678502
0.008553559508611747      604.4677806012277
0.008721987712864422      604.7059161033784
0.008890568698188937      604.9354748743027
0.00905960716025268       605.1564569140003
0.009229405331972688      605.3688622224711
0.009400261414687729      605.5726907997156
0.009571115435747398      605.8931072942474
0.009740911572891598      606.1835515637831
0.009909948019402086      606.4440236083227
0.010078526999976944      606.6745234278662
0.010246953201968763      606.8750510224137
0.010415532141122159      607.045606391965
0.010584568505013912      607.1861895365201
0.010754364518784467      607.296800456079
0.010925218376364454      607.3774391506421
0.011105591682722255      607.5386610466805
0.01128472526622686       607.6536028069866
0.011462968058774099      607.7222644315608
0.011640674239628768      607.7446459204028
0.011818201199823401      607.7207472735126
0.01199590741170419       607.6505684908905
0.012174150266116847      607.534109572536
0.012353283941958112      607.3713705184495
0.012533657370585264      607.1623513286308
0.01271403176453574       607.1256375345893
0.012893166387683227      607.0346423011733
0.013071410176518557      606.8893656283833
0.013249117315197753      606.689807516219
0.013426645199902413      606.4359679646807
0.013604352308338922      606.127846973768
0.01378259603687098       605.7654445434812
0.013961730570013379      605.3487606738199
0.014142104844781908      604.8777953647848
0.014312959944399205      604.478265987744
0.014482757184992078      604.0545312624054
0.014651794764271453      603.6065911887694
0.014820374911240972      603.1344457668358
0.014988802317395246      602.6380949966047
0.01515738250242126       602.1175388780761
0.015326420157607648      601.5727774112497
0.015496217511551624      601.0038105961257
0.015667072761367945      600.4106384327044
0.01583792791479403       599.8964708728837
0.016007725163749622      599.3898954178612
0.01617676270725794       598.8909120676374
0.01634534277588875       598.3995208222119
0.016513770062946447      597.9157216815848
0.01668235009015449       597.4395146457563
0.016851387551041475      596.9708997147259
0.017021184676619543      596.509876888494
0.017192039666560827      596.0564461670607
0.017372413817338207      595.6831095704465
0.017551548228302124      595.3353960414348
0.017729791836073705      595.0133055800262
0.017907498824762332      594.7168381862205
0.018085026590318725      594.4459938600176
0.018262733610032132      594.2007726014175
0.018440977279666457      593.9811744104203
0.018620111782963036      593.7871992870258
0.018800486056004474      593.6188472312343
0.018980860449944497      593.7051317359872
0.019159995073081745      593.8226034694178
0.019338238861906984      593.9712624315266
0.01951594600057618       594.1511086223132
0.019693473885270874      594.362142041778
0.019871180993697383      594.604362689921
0.020049424722219357      594.8777705667418
0.02022855925535152       595.1823656722405
0.0204089335301096        595.5181480064174
0.02057978862980686       595.9169602504103
0.020749585870478253      596.31854911176
0.020918623449835097      596.7229145904673
0.021087203596881453      597.1300566865316
0.021255631003112355      597.5399753999529
0.021424211188215206      597.9526707307315
0.021593248843479067      598.3681426788671
0.021763046197501558      598.78639124436
0.02193390144739785       599.20741642721
0.022104756600747556      599.7737909785686
0.02227455384962815       600.3144243179777
0.02244359139306247       600.8293164454375
0.022612171461619885      601.3184673609478
0.022780598748604386      601.7818770645086
0.022949178775739036      602.21954555612
0.02311821623655202       602.6314728357819
0.023288013362055097      603.0176589034943
0.023458868351919994      603.3781037592573
0.02363924250270423       603.8073688054866
0.023818376913674867      604.1898410941714
0.023996620521453065      604.5255206253122
0.02417432751014825       604.8144073989089
0.02435185527571118       605.0565014149613
0.024529562295431146      605.2518026734696
0.02470780596507209       605.4003111744336
0.024886940468375387      605.5020269178534
0.025067314741423676      605.5569499037292
