% Model:              brazing.mph
% Version:            COMSOL 5.3.0.223
% Date:               Oct 22 2018, 14:50
% Dimension:          1
% Nodes:              193
% Expressions:        1
% Description:        Line graph
% x                       Height
0                         557.1910261381224
1.6028433640637486E-4     557.2687991483023
3.201839556876346E-4      557.339454637463
4.7982673004648776E-4     557.4029926056047
6.393411493738095E-4      557.4594130527274
7.988560137323205E-4      557.5087159788311
9.58500122107595E-4       557.5509013839159
0.0011184019611720658     557.5859692679816
0.0012786893978073315     557.6139196310282
0.0014692881782178572     557.6353130233449
0.0016592398034323465     557.6402222776647
0.0018487589083489172     557.6286473939881
0.00203806159906999       557.6005883723149
0.0022273647228667317     557.5560452126449
0.0024168851255237504     557.4950179149783
0.002606838908709185      557.4175064793151
0.0027974407000143733     557.3235109056552
0.003000214284638094      557.198122629948
0.0032022105766743216     557.0576453204759
0.003403687017647933      556.9020789772391
0.0036049030444305387     556.7314236002372
0.0038061191011872996     556.5456791894705
0.004007595631967136      556.3448457449391
0.00420959207329518       556.1289232666428
0.00441236586612622       555.8979117545816
0.004615139632985625      555.6363014834556
0.004817136048636202      555.3713920441464
0.005018612553936322      555.1031834366543
0.005219828585313435      554.8316756609789
0.005421044586718146      554.5568687171206
0.0056225210022172924     554.2787626050792
0.005824517268584787      553.9973573248549
0.006027290827249049      553.7126528764475
0.006217890949519272      553.4146527285537
0.006407844130704021      553.1355122042825
0.0065973647866391935     552.8752313036335
0.00678666880286996       552.6338100266067
0.006975972806121895      552.4112483732023
0.007165493423165078      552.2075463434203
0.007355446539677438      552.0227039372604
0.007546046571713631      551.856721154723
0.00770633524869351       551.7332527886772
0.007866237248851195      551.62766878815
0.008025880956992212      551.539969153141
0.008185395381580456      551.4701538836505
0.008344909844757132      551.4182229796783
0.008504553668569658      551.3841764412246
0.008664455861201733      551.368014268289
0.008824744806995652      551.369736460872
0.008985029143401957      551.3910301728101
0.009144928762683142      551.4346066585944
0.009304571537041926      551.5004659182247
0.009464085956369179      551.5886079517011
0.00962360082072762       551.6990327590236
0.009783244929102828      551.831740340192
0.009943146768167231      551.9867306952067
0.010103434204802428      552.1640038240673
0.010294032985212885      552.3670778886549
0.010483984610427306      552.5903464462609
0.01067350371534381       552.833809496885
0.010862806406064813      553.0974670405277
0.011052109529861487      553.3813190771887
0.011241629932518437      553.685365606868
0.011431583715703804      554.0096066295657
0.011622185507008923      554.3540421452818
0.011824959091632737      554.6940155601926
0.012026955383669057      555.0262935237273
0.012228431824642762      555.3508760358859
0.01242964785142546       555.6677630966685
0.012630863908182311      555.976954706075
0.012832340438962243      556.2784508641054
0.01303433688029038       556.5722515707596
0.013237110673121513      556.8583568260378
0.013439884439981065      557.1186150344063
0.013641880855631786      557.35892399449
0.013843357360932049      557.5792837062894
0.014044573392309304      557.7796941698041
0.014245789393714157      557.9601553850342
0.014447265809213447      558.1206673519797
0.014649262075581083      558.2612300706406
0.01485203563424549       558.381843541017
0.015042635756515686      558.4815927969418
0.015232588937700405      558.5644366406912
0.015422109593635547      558.6303750722655
0.015611413609866287      558.6794080916644
0.015800717613118194      558.7115356988882
0.01599023823016135       558.7267578939367
0.01618019134667368       558.72507467681
0.016370791378709844      558.7064860475081
0.016531080055689654      558.6640011083
0.01669098205584727       558.6179470108226
0.016850625763988217      558.5683237550759
0.017010140188576394      558.5151313410599
0.017169654651752998      558.4583697687748
0.017329298475565455      558.3980390382204
0.017489200668197463      558.3341391493966
0.01764948961399131       558.2666701023037
0.01780977395039525       558.1677773860473
0.017969673569674088      558.0568531864235
0.018129316344030533      557.9338975034324
0.01828883076335545       557.798910337074
0.01844834562771156       557.6518916873482
0.01860798973608443       557.492841554255
0.018767891575146484      557.3217599377946
0.018928179011779317      557.1386468379668
0.019118777792188433      556.8594828414485
0.019308729417401523      556.5575725134292
0.019498248522316707      556.2329158539087
0.019687551213036395      555.8855128628874
0.019876854336831753      555.5153635403649
0.02006637473948738       555.1224678863414
0.020256328522671414      554.706825900817
0.020446930313975188      554.2684375837914
0.02064970389860279       553.7415630505886
0.02085170019064286       553.2012896321504
0.02105317663162028       552.6476173284772
0.02125439265840668       552.0805461395686
0.021455608715167235      551.5000760654248
0.02165708524595088       550.9062071060456
0.021859081687282764      550.2989392614313
0.02206185548011769       549.6782725315817
0.022264629246980954      549.06061037105
0.022466625662635346      548.454941427965
0.022668102167939252      547.8612657023269
0.022869318199320136      547.2795831941356
0.023070534200728618      546.7098939033912
0.023272010616231548      546.1521978300935
0.023474006882602858      545.6064949742427
0.02367678044127098       545.0727853358387
0.02386738056353977       544.5574699111539
0.024057333744723106      544.0769817599473
0.02424685440065687       543.631320882219
0.024436158416886237      543.2204872779689
0.02462546242013677       542.8444809471971
0.024814983037178547      542.5033018899032
0.025004936153689494      542.1969501060878
0.025195536185724256      541.9254255957505
0.0253558248627017        541.6915727717225
0.025515726862856965      541.4875168310732
0.025675370570995573      541.3132577738029
0.02583488499558142       541.1687955999115
0.02599439945875569       541.054130309399
0.02615404328256581       540.9692619022654
0.026313945475195465      540.9141903785107
0.026474234420986946      540.888915738135
0.026634518757392422      540.8880254555697
0.02679441837667279       540.9133887489859
0.026954061151030752      540.9650056183834
0.02711357557035719       541.0428760637622
0.027273090434714816      541.1470000851223
0.027432734543089202      541.2773776824637
0.027592636382152785      541.4340088557864
0.02775292381878715       541.6168936050904
0.02794352259919713       541.8448376698021
0.02813347422441108       542.1065146741311
0.028322993329327112      542.401924618077
0.028512296020047647      542.7310675016399
0.02870159914384385       543.09394332482
0.028891119546500334      543.490552087617
0.02908107332968523       543.9208937900311
0.029271675120989875      544.3849684320621
0.02947444870561504       544.8949527484231
0.029676444997652693      545.4165859741303
0.02987792143862772       545.9498681091839
0.030079137465411736      546.4947991535837
0.030280353522169904      547.0513791073298
0.030481830052951155      547.6196079704223
0.030683826494280624      548.1994857428612
0.030886600287113104      548.7910124246462
0.03108937405397396       549.3713997441998
0.03129137046962597       549.9456441433803
0.03149284697492751       550.5137456221878
0.03169406300630604       551.0757041806223
0.03189527900771217       551.6315198186838
0.03209675542321274       552.1811925363724
0.03229875168958166       552.7247223336877
0.03250152524824737       553.2621092106302
0.03269212537051706       553.6942929924543
0.03288207855170127       554.1023245441331
0.033071599207635916      554.4862038656668
0.033260903223866156      554.8459309570552
0.033450207227117564      555.1815058182984
0.033639727844160215      555.4929284493965
0.03382968096067204       555.7801988503493
0.034020280992707694      556.0433170211569
0.034180569669686675      556.2300479402875
0.03434047166984347       556.4044167795581
0.0345001153779836        556.5664235389688
0.03465962980257096       556.7160682185195
0.03481914426574675       556.8533508182102
0.034978788089558385      556.9782713380408
0.03513869028218957       557.0908297780117
0.035298979227982585      557.1910261381224
