% Model:              brazing.mph
% Version:            COMSOL 5.3.0.223
% Date:               Oct 22 2018, 15:31
% Dimension:          1
% Nodes:              225
% Expressions:        1
% Description:        Line graph
% x                       Height
0                         637.7036919953975
2.3022181212578358E-4     637.5706423748488
4.5999325066962656E-4     637.4107549070542
6.894940081029028E-4      637.2240295920132
9.189044129547812E-4      637.0104664297261
0.001148405006736289      636.7700654201931
0.0013781761183620641     636.5028265634136
0.001608397441069865      636.2087498593881
0.001839314118928521      635.5197740112156
0.0020697760201574002     634.8348398576949
0.002299964597801726      634.1539473988256
0.0025300619515304015     633.4770966346077
0.0027602503975112853     632.8042875650419
0.0029907120357255193     632.1355201901272
0.003221628319839081      631.4707945098642
0.0034518885683530987     630.5917483540236
0.0036816980188178403     629.7047552121651
0.003911236592567028      628.8098150842883
0.004140684848157368      627.9069279703936
0.004370223557282477      626.9960938704809
0.004600033278179856      626.0773127845498
0.004830293931548535      625.1505847126009
0.005060048526376791      624.0360246904485
0.005289355629682316      622.934385931507
0.005518393850920054      621.8456684357767
0.005747342428834         620.7698722032574
0.00597638081262499       619.7069972339493
0.006205688240655705      618.657043527852
0.006435443321622868      617.620011084966
0.006665339619110656      616.5003304840308
0.006894787442849326      615.4014622971921
0.007123965728649401      614.3234065244499
0.007353054043912613      613.2661631658043
0.007582232167524012      612.2297322212555
0.007811679667266285      611.2141136908031
0.008041575479707366      610.2193075744474
0.008271887219609135      609.2155513645773
0.008501747728772392      608.2476363735209
0.008731337046705121      607.315562601278
0.008960835851156599      606.4193300478487
0.009190425033567954      605.5589387132333
0.009420285272008154      604.7343885974311
0.009650596606620833      603.9456797004428
0.009881512912836019      603.1830871795886
0.010111974573021956      602.4698132063539
0.010342163040896366      601.805857780739
0.010572260416492441      601.1912209027438
0.010802449016030204      600.6259025723684
0.011032910939230619      600.1099027896126
0.011263827639190652      599.6432215544767
0.011494048967061755      599.1988193202668
0.011723820083820682      598.8296248081135
0.011953320682717213      598.5356380180166
0.012182731092678062      598.3168589499763
0.012412231855226382      598.173287603993
0.012642003298903411      598.1049239800659
0.012872225116192546      598.1117680781955
0.013102446994778118      597.9723698115909
0.013332218499393473      597.928825116763
0.01356171932266464       597.9811339937121
0.013791129793276359      598.1292964424379
0.01402063045289555       598.3733124629408
0.014250401630592404      598.7131820552202
0.014480623019759359      599.1489052192766
0.014711539835704642      599.4164119249425
0.014942001874208778      599.7658832681631
0.015172190588640395      600.1973192489381
0.01540228807899374       600.7107198672676
0.015632476661762654      601.3060851231519
0.015862938437253588      601.9834150165904
0.01609385485945594       602.7427095475836
0.016324115336228646      603.4170545136919
0.016553925013622208      604.1309494278504
0.016783463813500554      604.8843942900587
0.017012912294953733      605.677389100317
0.01724245123020976       606.5099338586256
0.01747226117803945       607.3820285649838
0.017702522059672054      608.2936732193922
0.017932276794613372      609.2053323352698
0.018161584037218948      610.1432640517123
0.018390622397267263      611.10746836872
0.018619571113827754      612.0979452862929
0.018848609636427344      613.114694804431
0.019077917203754128      614.157716923134
0.019307672424828403      615.2270116424023
0.019537568573699274      616.1995539631752
0.01976701624968263       617.1879773744265
0.019996194388245302      618.192281876156
0.020225282556443316      619.212467468364
0.020454460532815345      620.2485341510508
0.02068390788479834       621.3004819242154
0.020913803548616574      622.3683107878588
0.02114411498977932       623.222137308318
0.021373975201947604      624.0894009010703
0.02160356422393484       624.9701015661157
0.02183306273279162       625.864239303454
0.02206265161925901       626.7718141130857
0.02229251156070728       627.6928259950101
0.02252282259658549       628.6272749492277
0.022753738766914562      629.2312956593054
0.022984200292012823      629.8374828263254
0.023214388625279938      630.445836450288
0.023444485866429166      631.056356531193
0.023674674331359946      631.669043069041
0.023905136119473275      632.2838960638311
0.024136052683548088      632.900915515564
0.024366274021741702      633.1134173995875
0.024596045148762867      633.3281042636189
0.024825545757885373      633.5449761076578
0.02505495617806012       633.7640329317043
0.02528445695083446       633.9852747357589
0.025514228404773787      634.2087015198208
0.025744450232385536      634.4343132838906
0.025974672267095825      634.297176639346
0.026204443926923768      634.1393362668969
0.02643394490485871       633.960792166543
0.02666335552995085       633.7615443382844
0.026892856344233315      633.5415927821214
0.02712262767714175       633.3009374980534
0.02735284922243193       633.0395784860809
0.027583766528201624      632.3792669086602
0.027814229053652367      631.7111521839718
0.028044418253299775      631.0352343120159
0.02827451622829193       630.3515132927923
0.028504705296278778      629.6599891263015
0.028735167558720572      628.9606618125426
0.028966084470753738      628.2535313515166
0.029196345605491433      627.3834515926485
0.02942615593701711       626.4831409518135
0.02965569538872289       625.5525994290116
0.029885144521236064      624.5918270242424
0.030114684108324883      623.6008237375066
0.030344494710297387      622.5795895688036
0.030574756249911007      621.5281245181337
0.030804511377321087      620.3838617542301
0.031033819010118435      619.2315583085337
0.031262857758987544      618.0712141810445
0.03149180686390927       616.9028293717624
0.031720845775323685      615.726403880688
0.031950153732830305      614.5419377078206
0.032179909346355486      613.3494308531605
0.0324098051544111        612.1693394833527
0.032639252491552244      610.9975861262748
0.03286843029245836       609.8341707819267
0.0330975181233935        608.6790934503084
0.03332669576210278       607.5323541314202
0.03355614277523119       606.3939528252615
0.033786038098215655      605.263889531833
0.034016348759356954      604.1844243321235
0.03424620819605658       603.1398948673052
0.034475796445315066      602.1303011373781
0.03470529418235937       601.1556431423423
0.03493488229610333       600.2159208821981
0.035164741462093585      599.311134356945
0.03539505171796626       598.4412835665833
0.035625967353597694      597.6347221574995
0.03585642834714083       596.884428195725
0.036086616150743635      596.19040168126
0.03631671286286018       595.5526426141045
0.03654690079812825       594.9711509942586
0.036777362054689705      594.4459268217219
0.03700827808407173       593.9769700964947
0.03723849938140827       593.560831949861
0.03746827046781093       593.2265376638351
0.03769777103645843       592.9740872384167
0.03792718141620601       592.8034806736063
0.0381566821485052        592.7147179694038
0.03838645356182577       592.7077991258087
0.03861667534858004       592.7827241428215
0.038846895274787324      592.7619638785841
0.039076664838430766      592.8423208510809
0.03930616372759302       593.0237950603117
0.03953557226638858       593.3063865062766
0.039765070991905134      593.6900951889759
0.039994840228642616      594.1749211084089
0.040225059665450036      594.7608642645761
0.04045597761776665       595.2340102043981
0.04068644078597457       595.7905208126773
0.04091663062609736       596.4303960894135
0.041146729240799984      597.1536360346068
0.04137691894925231       597.9602406482576
0.04160738185443156       598.850209930365
0.04183829941298208       599.8235438809298
0.04206856149768976       600.7447023413489
0.04229837277362926       601.7030081559317
0.04252791316640542       602.6984613246779
0.04275736323887129       603.7310618475875
0.04298690376702529       604.800809724661
0.04321671531340127       605.9077049558975
0.04344697780296935       607.0517475412979
0.043676731016186174      608.2517056939482
0.04390603674591497       609.4611123064138
0.04413507359840861       610.6799673786945
0.04436402080919017       611.9082709107905
0.044593057824233256      613.1460229027019
0.04482236387867965       614.3932233544282
0.045052117578024006      615.6498722659699
0.045282012653644836      616.9112317567431
0.045511459262636354      618.1576081371277
0.04574063633797325       619.3890014071237
0.04596972344420469       620.6054115667312
0.046198900357357554      621.8068386159503
0.046428346642361965      622.9932825547805
0.04665824123294997       624.1647433832225
0.04688855484177433       625.2488433658485
0.04711841720894409       626.3116277365301
0.04734800837831597       627.353096495267
0.04757750903201372       628.3732496420594
0.047807100065861544      629.3720871769075
0.04803696216230292       630.3496090998108
0.04826727536583021       631.3058154107697
0.048498193048686675      632.0513736463693
0.048728656077441146      632.7730142293498
0.04895884590902903       633.470737159711
0.04918894464672031       634.1445424374533
0.04941913460997818       634.7944300625769
0.04964959790176041       635.4204000350809
0.04988051597838159       636.0224523549662
0.05011073543954296       636.2923157174354
0.0503405047004922        636.5522836562448
0.05057000345013497       636.8023561713944
0.05079941201302823       637.0425332628846
0.05102891092631677       637.2728149307154
0.05125868051417213       637.4932011748862
0.051488900464733596      637.7036919953975
