% Model:              brazing.mph
% Version:            COMSOL 5.3.0.223
% Date:               Oct 22 2018, 15:52
% Dimension:          1
% Nodes:              193
% Expressions:        1
% Description:        Line graph
% x                       Height
0                         606.6314120644522
1.6028433640637486E-4     606.7116980503116
3.201839556876346E-4      606.7848045842281
4.7982673004648776E-4     606.8507316662018
6.393411493738095E-4      606.9094792962327
7.988560137323205E-4      606.9610474743208
9.58500122107595E-4       607.0054362004662
0.0011184019611720658     607.0426454746687
0.0012786893978073315     607.0726752969284
0.0014692881782178572     607.0961699905695
0.0016592398034323465     607.102745437605
0.0018487589083489172     607.0924016380354
0.00203806159906999       607.0651385918604
0.0022273647228667317     607.0209562990802
0.0024168851255237504     606.9598547596946
0.002606838908709185      606.8818339737037
0.0027974407000143733     606.7868939411075
0.003000214284638094      606.6633217198362
0.0032022105766743216     606.5241046121098
0.003403687017647933      606.3692426179283
0.0036049030444305387     606.1987357372918
0.0038061191011872996     606.0125839702002
0.004007595631967136      605.8107873166537
0.00420959207329518       605.593345776652
0.00441236586612622       605.3602593501952
0.004615139632985625      605.0954706929979
0.004817136048636202      604.8272514716831
0.005018612553936322      604.555601686251
0.005219828585313435      604.2805213367013
0.005421044586718146      604.0020104230343
0.0056225210022172924     603.7200689452499
0.005824517268584787      603.434696903348
0.006027290827249049      603.1458942973287
0.006217890949519272      602.8451465392915
0.006407844130704021      602.562933437925
0.0065973647866391935     602.2992549932296
0.00678666880286996       602.0541112052049
0.006975972806121895      601.8275020738511
0.007165493423165078      601.619427599168
0.007355446539677438      601.4298877811559
0.007546046571713631      601.2588826198146
0.00770633524869351       601.1311470827185
0.007866237248851195      601.0212701439357
0.008025880956992212      600.9292518034665
0.008185395381580456      600.8550920613108
0.008344909844757132      600.7987909174685
0.008504553668569658      600.7603483719398
0.008664455861201733      600.7397644247246
0.008824744806995652      600.737039075823
0.008985029143401957      600.7541190903678
0.009144928762683142      600.7932233678773
0.009304571537041926      600.8543519083516
0.009464085956369179      600.9375047117908
0.00962360082072762       601.0426817781947
0.009783244929102828      601.1698831075635
0.009943146768167231      601.3191086998969
0.010103434204802428      601.4903585551953
0.010294032985212885      601.6874001207713
0.010483984610427306      601.904455971982
0.01067350371534381       602.141526108828
0.010862806406064813      602.3986105313087
0.011052109529861487      602.6757092394245
0.011241629932518437      602.9728222331751
0.011431583715703804      603.2899495125607
0.011622185507008923      603.6270910775813
0.011824959091632737      603.9595231668318
0.012026955383669057      604.2845012647451
0.012228431824642762      604.6020253713211
0.01242964785142546       604.9120954865601
0.012630863908182311      605.2147116104618
0.012832340438962243      605.5098737430263
0.01303433688029038       605.7975818842536
0.013237110673121513      606.0778360341437
0.013439884439981065      606.3304403219968
0.013641880855631786      606.5632797650301
0.013843357360932049      606.7763543632436
0.014044573392309304      606.9696641166374
0.014245789393714157      607.1432090252114
0.014447265809213447      607.2969890889657
0.014649262075581083      607.4310043079001
0.01485203563424549       607.5452546820148
0.015042635756515686      607.6400606093788
0.015232588937700405      607.7179949658656
0.015422109593635547      607.7790577514752
0.015611413609866287      607.8232489662076
0.015800717613118194      607.8505686100629
0.01599023823016135       607.8610166830409
0.01618019134667368       607.8545931851418
0.016370791378709844      607.8312981163655
0.016531080055689654      607.7849432271685
0.01669098205584727       607.7352316045923
0.016850625763988217      607.6821632486368
0.017010140188576394      607.625738159302
0.017169654651752998      607.565956336588
0.017329298475565455      607.5028177804948
0.017489200668197463      607.4363224910222
0.01764948961399131       607.3664704681705
0.01780977395039525       607.2645002805892
0.017969673569674088      607.1506648436588
0.018129316344030533      607.0249641573789
0.01828883076335545       606.8873982217498
0.01844834562771156       606.7379670367714
0.01860798973608443       606.5766706024436
0.018767891575146484      606.4035089187666
0.018928179011779317      606.2184819857404
0.019118777792188433      605.9377265765921
0.019308729417401523      605.63445148741
0.019498248522316707      605.3086567181939
0.019687551213036395      604.9603422689436
0.019876854336831753      604.5895081396592
0.02006637473948738       604.1961543303408
0.020256328522671414      603.7802808409884
0.020446930313975188      603.341887671602
0.02064970389860279       602.8145955759016
0.02085170019064286       602.2743733365902
0.02105317663162028       601.7212209536677
0.02125439265840668       601.1551384271343
0.021455608715167235      600.5761257569898
0.02165708524595088       599.9841829432341
0.021859081687282764      599.3793099858676
0.02206185548011769       598.76150688489
0.022264629246980954      598.1449907086854
0.022466625662635346      597.5408619251899
0.022668102167939252      596.9491205344034
0.022869318199320136      596.3697665363256
0.023070534200728618      595.8027999309569
0.023272010616231548      595.248220718297
0.023474006882602858      594.7060288983461
0.02367678044127098       594.1762244711041
0.02386738056353977       593.6651027408606
0.024057333744723106      593.1888644490313
0.02424685440065687       592.7475095956167
0.024436158416886237      592.3410381806166
0.02462546242013677       591.969450204031
0.024814983037178547      591.6327456658597
0.025004936153689494      591.3309245661031
0.025195536185724256      591.063986904761
0.0253558248627017        590.8348276292227
0.025515726862856965      590.6354363621189
0.025675370570995573      590.4658131034499
0.02583488499558142       590.3259578532156
0.02599439945875569       590.2158706114162
0.02615404328256581       590.1355513780514
0.026313945475195465      590.0850001531214
0.026474234420986946      590.0642169366262
0.026634518757392422      590.0679296059833
0.02679441837667279       590.0979486686457
0.026954061151030752      590.1542741246132
0.02711357557035719       590.2369059738859
0.027273090434714816      590.3458442164637
0.027432734543089202      590.4810888523467
0.027592636382152785      590.6426398815348
0.02775292381878715       590.8304973040282
0.02794352259919713       591.0650822063
0.02813347422441108       591.3334159833837
0.028322993329327112      591.6354986352799
0.028512296020047647      591.971330161988
0.02870159914384385       592.3409105635084
0.028891119546500334      592.7442398398408
0.02908107332968523       593.1813179909855
0.029271675120989875      593.6521450169423
0.02947444870561504       594.1687206752692
0.029676444997652693      594.697173329333
0.02987792143862772       595.2375029791339
0.030079137465411736      595.7897096246716
0.030280353522169904      596.3537932659463
0.030481830052951155      596.9297539029579
0.030683826494280624      597.5175915357065
0.030886600287113104      598.1173061641921
0.03108937405397396       598.7047003222057
0.03129137046962597       599.2854790090665
0.03149284697492751       599.8596422247748
0.03169406300630604       600.4271899693305
0.03189527900771217       600.9881222427334
0.03209675542321274       601.5424390449838
0.03229875168958166       602.0901403760814
0.03250152524824737       602.6312262360265
0.03269212537051706       603.0704968395474
0.03288207855170127       603.4852222194157
0.033071599207635916      603.8754023756311
0.033260903223866156      604.2410373081937
0.033450207227117564      604.5821270171034
0.033639727844160215      604.8986715023603
0.03382968096067204       605.1906707639645
0.034020280992707694      605.4581248019158
0.034180569669686675      605.6481953007404
0.03434047166984347       605.8258630592771
0.0345001153779836        605.9911280775261
0.03465962980257096       606.1439903554871
0.03481914426574675       606.2844498931602
0.034978788089558385      606.4125066905455
0.03513869028218957       606.5281607476428
0.035298979227982585      606.6314120644522
