% Model:              brazing.mph
% Version:            COMSOL 5.3.0.223
% Date:               Oct 22 2018, 15:52
% Dimension:          1
% Nodes:              145
% Expressions:        1
% Description:        Line graph
% x                       Height
0                         634.6746201517459
1.8037553861809572E-4     634.9309196864164
3.5951128344368776E-4     635.1342444955685
5.377561773732229E-4      635.2845945792026
7.154644111300318E-4      635.3819699373186
8.929933875627798E-4      635.4263705699163
0.0010707015910786408     635.4177964769959
0.0012489464247083767     635.3562476585573
0.0014280820795340731     635.2417241146006
0.0016084574989771061     635.0742258451257
0.0017793134314883058     635.0080203525147
0.0019491114898538484     634.9173657608616
0.002118149876008701      634.802262070167
0.0022867308232763497     634.6627092804305
0.002455159027530182      634.4987073916523
0.0026237400128558564     634.3102564038323
0.0027927784749207734     634.0973563169705
0.0029625766466419693     633.860007131067
0.0031334327293582195     633.5982088461218
0.0033042867504275058     633.4214209320609
0.0034740828875811486     633.2397533427516
0.0036431193341009516     633.0532060781944
0.0038116983146850476     632.861779138389
0.003980124516686077      632.6654725233354
0.004148703455848711      632.4642862330337
0.004317739819749776      632.2582202674838
0.004487535833529769      632.0472746266857
0.004658389691119368      631.8314493106396
0.0048387629974717405     631.707796516144
0.005017896580971026      631.589655547282
0.005196139373513023      631.4770264040538
0.0053738455543625        631.3699090864595
0.005551372514551955      631.2683035944989
0.005729078726427549      631.1722099281722
0.005907321580834967      631.0816280874791
0.006086455256670912      630.9965580724198
0.006266828685292636      630.9169998829943
0.0064472042239161545     631.0614685604618
0.0066263399687470585     631.2144553368418
0.00680458486268183       631.3759602121347
0.0069822930964438265     631.5459831863403
0.007159822072881748      631.7245242594587
0.007337530276402798      631.9115834314898
0.007515775110037768      632.1071607024336
0.007694910764868775      632.3112560722902
0.007875286184317232      632.5238695410595
0.008046142116827224      632.7944973109398
0.008215940175191578      633.0570466331827
0.008384978561345261      633.3115175077883
0.008553559508611747      633.5579099347566
0.008721987712864422      633.7962239140876
0.008890568698188937      634.0264594457813
0.00905960716025268       634.2486165298376
0.009229405331972688      634.4626951662565
0.009400261414687729      634.6686953550382
0.009571115435747398      634.9859190127836
0.009740911572891598      635.2736935543616
0.009909948019402086      635.5320189797724
0.010078526999976944      635.7608952890158
0.010246953201968763      635.9603224820918
0.010415532141122159      636.1303005590005
0.010584568505013912      636.2708295197419
0.010754364518784467      636.3819093643158
0.010925218376364454      636.4635400927224
0.011105591682722255      636.623230762997
0.01128472526622686       636.7372310398836
0.011462968058774099      636.8055409233824
0.011640674239628768      636.8281604134934
0.011818201199823401      636.8050895102165
0.01199590741170419       636.7363282135517
0.012174150266116847      636.6218765234989
0.012353283941958112      636.4617344400583
0.012533657370585264      636.2559019632299
0.01271403176453574       636.2133591196288
0.012893166387683227      636.1174809975826
0.013071410176518557      635.9682675970913
0.013249117315197753      635.7657189181551
0.013426645199902413      635.5098349607738
0.013604352308338922      635.2006157249476
0.01378259603687098       634.8380612106762
0.013961730570013379      634.4221714179599
0.014142104844781908      633.9529463467985
0.014312959944399205      633.5526947123924
0.014482757184992078      633.1286580458592
0.014651794764271453      632.6808363471996
0.014820374911240972      632.209229616413
0.014988802317395246      631.7138378534997
0.01515738250242126       631.1946610584597
0.015326420157607648      630.6516992312929
0.015496217511551624      630.0849523719993
0.015667072761367945      629.494420480579
0.01583792791479403       628.9785629120607
0.016007725163749622      628.4707224905716
0.01617676270725794       627.9708992161119
0.01634534277588875       627.4790930886816
0.016513770062946447      626.9953041082805
0.01668235009015449       626.5195322749087
0.016851387551041475      626.0517775885662
0.017021184676619543      625.5920400492529
0.017192039666560827      625.140319656969
0.017372413817338207      624.7653659191187
0.017551548228302124      624.4168645993622
0.017729791836073705      624.0948156976999
0.017907498824762332      623.7992192141315
0.018085026590318725      623.5300751486574
0.018262733610032132      623.287383501277
0.018440977279666457      623.0711442719908
0.018620111782963036      622.8813574607984
0.018800486056004474      622.7180230677003
0.018980860449944497      622.8004389072973
0.019159995073081745      622.9146629513774
0.019338238861906984      623.0606951999407
0.01951594600057618       623.2385356529873
0.019693473885270874      623.4481843105167
0.019871180993697383      623.6896411725295
0.020049424722219357      623.9629062390253
0.02022855925535152       624.2679795100044
0.0204089335301096        624.6048609854665
0.02057978862980686       625.0024940653296
0.020749585870478253      625.4035993348084
0.020918623449835097      625.8081767939029
0.021087203596881453      626.2162264426133
0.021255631003112355      626.6277482809393
0.021424211188215206      627.042742308881
0.021593248843479067      627.4612085264383
0.021763046197501558      627.8831469336113
0.02193390144739785       628.3085575304002
0.022104756600747556      628.8724889079336
0.02227455384962815       629.4112440937812
0.02244359139306247       629.9248230879433
0.022612171461619885      630.4132258904198
0.022780598748604386      630.8764525012105
0.022949178775739036      631.3145029203156
0.02311821623655202       631.727377147735
0.023288013362055097      632.1150751834685
0.023458868351919994      632.4775970275167
0.02363924250270423       632.9062807953427
0.023818376913674867      633.2888220413294
0.023996620521453065      633.6252207654773
0.02417432751014825       633.9154769677863
0.02435185527571118       634.1595906482561
0.024529562295431146      634.3575618068871
0.02470780596507209       634.509390443679
0.024886940468375387      634.6150765586318
0.025067314741423676      634.6746201517459
