% Model:              brazing.mph
% Version:            COMSOL 5.3.0.223
% Date:               Oct 22 2018, 15:06
% Dimension:          1
% Nodes:              193
% Expressions:        1
% Description:        Line graph
% x                       Height
0                         605.0846588372018
1.6028433640637486E-4     605.1653389465278
3.201839556876346E-4      605.2388380121578
4.7982673004648776E-4     605.3051560340924
6.393411493738095E-4      605.3642930123311
7.988560137323205E-4      605.4162489468742
9.58500122107595E-4       605.4610238377217
0.0011184019611720658     605.4986176848734
0.0012786893978073315     605.5290304883295
0.0014692881782178572     605.5529917827433
0.0016592398034323465     605.5600486107091
0.0018487589083489172     605.5502009722272
0.00203806159906999       605.5234488672972
0.0022273647228667317     605.4797922959194
0.0024168851255237504     605.4192312580938
0.002606838908709185      605.34176575382
0.0027974407000143733     605.2473957830985
0.003000214284638094      605.1242432942433
0.0032022105766743216     604.9854588878195
0.003403687017647933      604.8310425638268
0.0036049030444305387     604.6609943222653
0.0038061191011872996     604.4753141631351
0.004007595631967136      604.274002086436
0.00420959207329518       604.0570580921681
0.00441236586612622       603.8244821803314
0.004615139632985625      603.5602604177838
0.004817136048636202      603.2925931426004
0.005018612553936322      603.0214803547814
0.005219828585313435      602.7469220543267
0.005421044586718146      602.4689182412362
0.0056225210022172924     602.1874689155101
0.005824517268584787      601.9025740771484
0.006027290827249049      601.6142337261509
0.006217890949519272      601.3138374862099
0.006407844130704021      601.0319715715038
0.0065973647866391935     600.7686359820328
0.00678666880286996       600.5238307177967
0.006975972806121895      600.2975557787956
0.007165493423165078      600.0898111650296
0.007355446539677438      599.9005968764985
0.007546046571713631      599.7299129132025
0.00770633524869351       599.602435605015
0.007866237248851195      599.4928026199274
0.008025880956992212      599.4010139579397
0.008185395381580456      599.3270696190517
0.008344909844757132      599.2709696032637
0.008504553668569658      599.2327139105754
0.008664455861201733      599.212302540987
0.008824744806995652      599.2097354944984
0.008985029143401957      599.2269433962625
0.009144928762683142      599.2661779299478
0.009304571537041926      599.3274390955545
0.009464085956369179      599.4107268930826
0.00962360082072762       599.5160413225319
0.009783244929102828      599.6433823839026
0.009943146768167231      599.7927500771946
0.010103434204802428      599.9641444024078
0.010294032985212885      600.1612642779124
0.010483984610427306      600.378389618845
0.01067350371534381       600.6155204252052
0.010862806406064813      600.8726566969934
0.011052109529861487      601.1497984342095
0.011241629932518437      601.4469456368533
0.011431583715703804      601.764098304925
0.011622185507008923      602.1012564384245
0.011824959091632737      602.4336733002598
0.012026955383669057      602.7586058922656
0.012228431824642762      603.0760542144417
0.01242964785142546       603.3860182667884
0.012630863908182311      603.6884980493055
0.012832340438962243      603.9834935619931
0.01303433688029038       604.2710048048511
0.013237110673121513      604.5510317778796
0.013439884439981065      604.8035050341194
0.013641880855631786      605.0361915684917
0.013843357360932049      605.2490913809967
0.014044573392309304      605.442204471634
0.014245789393714157      605.615530840404
0.014447265809213447      605.7690704873065
0.014649262075581083      605.9028234123415
0.01485203563424549       606.0167896155091
0.015042635756515686      606.1112595850896
0.015232588937700405      606.1888526799057
0.015422109593635547      606.2495688999576
0.015611413609866287      606.2934082452452
0.015800717613118194      606.3203707157686
0.01599023823016135       606.3304563115279
0.01618019134667368       606.3236650325227
0.016370791378709844      606.2999968787535
0.016531080055689654      606.253319867349
0.01669098205584727       606.2032738882809
0.016850625763988217      606.1498589415493
0.017010140188576394      606.0930750271542
0.017169654651752998      606.0329221450957
0.017329298475565455      605.9694002953735
0.017489200668197463      605.9025094779878
0.01764948961399131       605.8322496929386
0.01780977395039525       605.7299257960134
0.017969673569674088      605.6157331333102
0.018129316344030533      605.4896717048289
0.01828883076335545       605.3517415105696
0.01844834562771156       605.2019425505322
0.01860798973608443       605.0402748247168
0.018767891575146484      604.8667383331234
0.018928179011779317      604.6813330757519
0.019118777792188433      604.4000653910673
0.019308729417401523      604.0962749850495
0.019498248522316707      603.7699618576983
0.019687551213036395      603.4211260090138
0.019876854336831753      603.0497674389961
0.02006637473948738       602.6558861476451
0.020256328522671414      602.2394821349608
0.020446930313975188      601.8005554009433
0.02064970389860279       601.2727452967517
0.02085170019064286       600.7319973316513
0.02105317663162028       600.1783115056418
0.02125439265840668       599.6116878187232
0.021455608715167235      599.0321262708956
0.02165708524595088       598.439626862159
0.021859081687282764      597.8341895925133
0.02206185548011769       597.2158144619586
0.022264629246980954      596.5988436104376
0.022466625662635346      595.9942619111982
0.022668102167939252      595.4020693642414
0.022869318199320136      594.8222659695663
0.023070534200728618      594.2548517271733
0.023272010616231548      593.6998266370625
0.023474006882602858      593.1571906992338
0.02367678044127098       592.626943913687
0.02386738056353977       592.1153699569263
0.024057333744723106      591.6387036844726
0.02424685440065687       591.1969450963257
0.024436158416886237      590.7900941924859
0.02462546242013677       590.4181509729528
0.024814983037178547      590.0811154377268
0.025004936153689494      589.7789875868075
0.025195536185724256      589.5117674201952
0.0253558248627017        589.2822909170742
0.025515726862856965      589.082606445771
0.025675370570995573      588.9127140062856
0.02583488499558142       588.7726135986179
0.02599439945875569       588.6623052227679
0.02615404328256581       588.5817888787358
0.026313945475195465      588.5310645665213
0.026474234420986946      588.5101322861246
0.026634518757392422      588.51369210229
0.02679441837667279       588.5435711776266
0.026954061151030752      588.599769512135
0.02711357557035719       588.6822871058147
0.027273090434714816      588.7911239586658
0.027432734543089202      588.9262800706886
0.027592636382152785      589.0877554418827
0.02775292381878715       589.2755500722483
0.02794352259919713       589.5100089872343
0.02813347422441108       589.7782374207226
0.028322993329327112      590.0802353727128
0.028512296020047647      590.4160028432052
0.02870159914384385       590.7855398321997
0.028891119546500334      591.1888463396963
0.02908107332968523       591.625922365695
0.029271675120989875      592.0967679101958
0.02947444870561504       592.6134087110643
0.029676444997652693      593.1419308954199
0.02987792143862772       593.682334463263
0.030079137465411736      594.2346194145935
0.030280353522169904      594.7987857494112
0.030481830052951155      595.3748334677164
0.030683826494280624      595.9627625695088
0.030886600287113104      596.5625730547886
0.03108937405397396       597.1501395784944
0.03129137046962597       597.731134551274
0.03149284697492751       598.3055579731275
0.03169406300630604       598.8734098440547
0.03189527900771217       599.4346901640556
0.03209675542321274       599.9893989331304
0.03229875168958166       600.5375361512789
0.03250152524824737       601.0791018185013
0.03269212537051706       601.5185753294511
0.03288207855170127       601.9335329581806
0.033071599207635916      602.3239747046896
0.033260903223866156      602.689900568978
0.033450207227117564      603.0313105510459
0.033639727844160215      603.3482046508933
0.03382968096067204       603.6405828685203
0.034020280992707694      603.9084452039266
0.034180569669686675      604.0988779168991
0.03434047166984347       604.2769089130679
0.0345001153779836        604.4425381924331
0.03465962980257096       604.5957657549943
0.03481914426574675       604.7365916007519
0.034978788089558385      604.8650157297055
0.03513869028218957       604.9810381418556
0.035298979227982585      605.0846588372018
