% Model:              brazing.mph
% Version:            COMSOL 5.3.0.223
% Date:               Oct 22 2018, 14:43
% Dimension:          1
% Nodes:              145
% Expressions:        1
% Description:        Line graph
% x                       Height
0                         610.6172955071684
1.8037553861809572E-4     610.8786820154949
3.5951128344368776E-4     611.0861646556823
5.377561773732229E-4      611.2397434277311
7.154644111300318E-4      611.3394183316411
8.929933875627798E-4      611.3851893674125
0.0010707015910786408     611.377056535045
0.0012489464247083767     611.3150198345386
0.0014280820795340731     611.1990792658934
0.0016084574989771061     611.0292348291094
0.0017793134314883058     610.9635457991598
0.0019491114898538484     610.873070158618
0.002118149876008701      610.7578079074844
0.0022867308232763497     610.617759045759
0.002455159027530182      610.4529235734418
0.0026237400128558564     610.2633014905326
0.0027927784749207734     610.0488927970315
0.0029625766466419693     609.8096974929384
0.0031334327293582195     609.5457155782536
0.0033042867504275058     609.3703928917423
0.0034740828875811486     609.189871283479
0.0036431193341009516     609.004150753464
0.0038116983146850476     608.8132313016973
0.003980124516686077      608.6171129281787
0.004148703455848711      608.4157956329085
0.004317739819749776      608.2092794158863
0.004487535833529769      607.9975642771122
0.004658389691119368      607.7806502165867
0.0048387629974717405     607.6587880910604
0.005017896580971026      607.5417818691701
0.005196139373513023      607.4296315509165
0.0053738455543625        607.322337136299
0.005551372514551955      607.2198986253179
0.005729078726427549      607.122316017973
0.005907321580834967      607.0295893142645
0.006086455256670912      606.9417185141922
0.006266828685292636      606.8587036177563
0.0064472042239161545     607.0070536092938
0.0066263399687470585     607.1634167132006
0.00680458486268183       607.3277929294769
0.0069822930964438265     607.5001822581227
0.007159822072881748      607.6805846991377
0.007337530276402798      607.8690002525223
0.007515775110037768      608.0654289182761
0.007694910764868775      608.2698706963994
0.007875286184317232      608.4823255868922
0.008046142116827224      608.7544129405321
0.008215940175191578      609.018009717987
0.008384978561345261      609.273115919257
0.008553559508611747      609.519731544342
0.008721987712864422      609.757856593242
0.008890568698188937      609.987491065957
0.00905960716025268       610.208634962487
0.009229405331972688      610.4212882828319
0.009400261414687729      610.6254510269921
0.009571115435747398      610.9453176510236
0.009740911572891598      611.2353025593828
0.009909948019402086      611.4954057520702
0.010078526999976944      611.7256272290851
0.010246953201968763      611.9259669904279
0.010415532141122159      612.0964250360987
0.010584568505013912      612.2370013660972
0.010754364518784467      612.3476959804235
0.010925218376364454      612.4285088790776
0.011105591682722255      612.589491283616
0.01128472526622686       612.704295452904
0.011462968058774099      612.7729213869422
0.011640674239628768      612.7953690857304
0.011818201199823401      612.7716385492683
0.01199590741170419       612.7017297775564
0.012174150266116847      612.5856427705942
0.012353283941958112      612.4233775283819
0.012533657370585264      612.2149340509196
0.01271403176453574       612.1773086085743
0.012893166387683227      612.0855614976656
0.013071410176518557      611.9396927181939
0.013249117315197753      611.7397022701591
0.013426645199902413      611.485590153561
0.013604352308338922      611.1773563684
0.01378259603687098       610.8150009146756
0.013961730570013379      610.398523792388
0.014142104844781908      609.9279250015373
0.014312959944399205      609.5283522005184
0.014482757184992078      609.1046454980525
0.014651794764271453      608.65680489414
0.014820374911240972      608.1848303887808
0.014988802317395246      607.6887219819748
0.01515738250242126       607.1684796737222
0.015326420157607648      606.6241034640226
0.015496217511551624      606.0555933528764
0.015667072761367945      605.4629493402834
0.01583792791479403       604.9485930667956
0.016007725163749622      604.4418995816774
0.01617676270725794       603.9428688849289
0.01634534277588875       603.4515009765502
0.016513770062946447      602.967795856541
0.01668235009015449       602.4917535249017
0.016851387551041475      602.023373981632
0.017021184676619543      601.5626572267319
0.017192039666560827      601.1096032602017
0.017372413817338207      600.7360960013889
0.017551548228302124      600.3883481283638
0.017729791836073705      600.066359641127
0.017907498824762332      599.7701305396782
0.018085026590318725      599.4996608240175
0.018262733610032132      599.2549504941449
0.018440977279666457      599.0359995500601
0.018620111782963036      598.8428079917633
0.018800486056004474      598.6753758192548
0.018980860449944497      598.7611009591321
0.019159995073081745      598.8781133732042
0.019338238861906984      599.0264130614714
0.01951594600057618       599.2060000239335
0.019693473885270874      599.4168742605907
0.019871180993697383      599.6590357714429
0.020049424722219357      599.9324845564901
0.02022855925535152       600.237220615732
0.0204089335301096        600.5732439491691
0.02057978862980686       600.9719130812595
0.020749585870478253      601.3734710279587
0.020918623449835097      601.7779177892668
0.021087203596881453      602.185253365184
0.021255631003112355      602.5954777557101
0.021424211188215206      603.0085909608451
0.021593248843479067      603.4245929805891
0.021763046197501558      603.8434838149417
0.02193390144739785       604.2652634639036
0.022104756600747556      604.8312510939874
0.02227455384962815       605.3715876494476
0.02244359139306247       605.8862731302848
0.022612171461619885      606.3753075364987
0.022780598748604386      606.8386908680891
0.022949178775739036      607.2764231250562
0.02311821623655202       607.6885043074
0.023288013362055097      608.0749344151204
0.023458868351919994      608.4357134482176
0.02363924250270423       608.8648665660902
0.023818376913674867      609.247330906132
0.023996620521453065      609.5831064683433
0.02417432751014825       609.8721932527241
0.02435185527571118       610.1145912592742
0.024529562295431146      610.3103004879937
0.02470780596507209       610.4593209388825
0.024886940468375387      610.5616526119408
0.025067314741423676      610.6172955071684
