% Model:              brazing.mph
% Version:            COMSOL 5.3.0.223
% Date:               Oct 22 2018, 15:43
% Dimension:          1
% Nodes:              145
% Expressions:        1
% Description:        Line graph
% x                       Height
0                         596.1760288284166
1.8037553861809572E-4     596.4189311063562
3.5951128344368776E-4     596.6098871370867
5.377561773732229E-4      596.7488969206087
7.154644111300318E-4      596.8359604569217
8.929933875627798E-4      596.8710777460259
0.0010707015910786408     596.8542487879215
0.0012489464247083767     596.785473582608
0.0014280820795340731     596.6647521300857
0.0016084574989771061     596.4920844303548
0.0017793134314883058     596.4223472165745
0.0019491114898538484     596.3290068901339
0.002118149876008701      596.2120634510333
0.0022867308232763497     596.0715168992725
0.002455159027530182      595.9073672348516
0.0026237400128558564     595.7196144577705
0.0027927784749207734     595.508258568029
0.0029625766466419693     595.2732995656276
0.0031334327293582195     595.0147374505659
0.0033042867504275058     594.8449313007679
0.0034740828875811486     594.6699942259594
0.0036431193341009516     594.4899262261405
0.0038116983146850476     594.3047273013111
0.003980124516686077      594.1143974514712
0.004148703455848711      593.9189366766208
0.004317739819749776      593.7183449767599
0.004487535833529769      593.5126223518885
0.004658389691119368      593.3017688020066
0.0048387629974717405     593.1844013569128
0.005017896580971026      593.0710855931767
0.005196139373513023      592.9618215107987
0.0053738455543625        592.8566091097788
0.005551372514551955      592.7554483901166
0.005729078726427549      592.6583393518125
0.005907321580834967      592.5652819948663
0.006086455256670912      592.4762763192781
0.006266828685292636      592.3913223250478
0.0064472042239161545     592.5358995708021
0.0066263399687470585     592.6877511000864
0.00680458486268183       592.8468769129012
0.0069822930964438265     593.0132770092462
0.007159822072881748      593.1869513891212
0.007337530276402798      593.3679000525265
0.007515775110037768      593.556122999462
0.007694910764868775      593.7516202299278
0.007875286184317232      593.9543917439237
0.008046142116827224      594.2155132493399
0.008215940175191578      594.4683024196623
0.008384978561345261      594.7127592548911
0.008553559508611747      594.9488837550261
0.008721987712864422      595.1766759200675
0.008890568698188937      595.3961357500151
0.00905960716025268       595.6072632448689
0.009229405331972688      595.8100584046289
0.009400261414687729      596.0045212292954
0.009571115435747398      596.3145802074331
0.009740911572891598      596.5961392189757
0.009909948019402086      596.8491982639235
0.010078526999976944      597.0737573422764
0.010246953201968763      597.2698164540343
0.010415532141122159      597.4373755991971
0.010584568505013912      597.5764347777651
0.010754364518784467      597.6869939897382
0.010925218376364454      597.7690532351163
0.011105591682722255      597.9302382911759
0.01128472526622686       598.0474816917082
0.011462968058774099      598.1207834367136
0.011640674239628768      598.1501435261919
0.011818201199823401      598.1355619601429
0.01199590741170419       598.077038738567
0.012174150266116847      597.9745738614641
0.012353283941958112      597.8281673288337
0.012533657370585264      597.6378191406767
0.01271403176453574       597.620023619943
0.012893166387683227      597.5498852389859
0.013071410176518557      597.4274039978058
0.013249117315197753      597.2525798964023
0.013426645199902413      597.0254129347755
0.013604352308338922      596.7459031129254
0.01378259603687098       596.4140504308521
0.013961730570013379      596.0298548885553
0.014142104844781908      595.5933164860354
0.014312959944399205      595.2250654212676
0.014482757184992078      594.8331540288549
0.014651794764271453      594.4175823087979
0.014820374911240972      593.9783502610964
0.014988802317395246      593.5154578857503
0.01515738250242126       593.0289051827597
0.015326420157607648      592.5186921521246
0.015496217511551624      591.9848187938447
0.015667072761367945      591.4272851079205
0.01583792791479403       590.9474360241506
0.016007725163749622      590.4740988742523
0.01617676270725794       590.0072736582258
0.01634534277588875       589.546960376071
0.016513770062946447      589.0931590277878
0.01668235009015449       588.6458696133764
0.016851387551041475      588.2050921328367
0.017021184676619543      587.7708265861686
0.017192039666560827      587.3430729733723
0.017372413817338207      586.9935432828953
0.017551548228302124      586.6675471419608
0.017729791836073705      586.3650845505692
0.017907498824762332      586.0861555087205
0.018085026590318725      585.8307600164143
0.018262733610032132      585.598898073651
0.018440977279666457      585.3905696804303
0.018620111782963036      585.2057748367522
0.018800486056004474      585.0445135426171
0.018980860449944497      585.1314196935703
0.019159995073081745      585.2472257032572
0.019338238861906984      585.3919315716781
0.01951594600057618       585.5655372988331
0.019693473885270874      585.7680428847218
0.019871180993697383      585.9994483293445
0.020049424722219357      586.2597536327011
0.02022855925535152       586.5489587947916
0.0204089335301096        586.867063815616
0.02057978862980686       587.2460926354231
0.020749585870478253      587.6267657692368
0.020918623449835097      588.0090832170577
0.021087203596881453      588.3930449788852
0.021255631003112355      588.7786510547196
0.021424211188215206      589.1659014445609
0.021593248843479067      589.554796148409
0.021763046197501558      589.9453351662638
0.02193390144739785       590.3375184981257
0.022104756600747556      590.8715816937739
0.02227455384962815       591.3802419443201
0.02244359139306247       591.8634992497648
0.022612171461619885      592.3213536101077
0.022780598748604386      592.7538050253486
0.022949178775739036      593.1608534954878
0.02311821623655202       593.5424990205252
0.023288013362055097      593.8987416004608
0.023458868351919994      594.2295812352946
0.02363924250270423       594.6262407554011
0.023818376913674867      594.9778033841787
0.023996620521453065      595.2842691216276
0.02417432751014825       595.5456379677479
0.02435185527571118       595.7619099225392
0.024529562295431146      595.9330849860017
0.02470780596507209       596.0591631581354
0.024886940468375387      596.1401444389404
0.025067314741423676      596.1760288284166
