% Model:              brazing.mph
% Version:            COMSOL 5.3.0.223
% Date:               Oct 22 2018, 15:06
% Dimension:          1
% Nodes:              193
% Expressions:        1
% Description:        Line graph
% x                       Height
0                         603.5324408477411
1.6028433640637486E-4     603.6133389271176
3.201839556876346E-4      603.6870554138333
4.7982673004648776E-4     603.7535903078879
6.393411493738095E-4      603.8129436092814
7.988560137323205E-4      603.865115318014
9.58500122107595E-4       603.9101054340855
0.0011184019611720658     603.9479139574961
0.0012786893978073315     603.9785408882457
0.0014692881782178572     604.0027663233301
0.0016592398034323465     604.0100955464223
0.0018487589083489172     604.0005285575226
0.00203806159906999       603.9740653566305
0.0022273647228667317     603.9307059437463
0.0024168851255237504     603.8704503188701
0.002606838908709185      603.7932984820015
0.0027974407000143733     603.699250433141
0.003000214284638094      603.5763449688524
0.0032022105766743216     603.4378149189556
0.003403687017647933      603.2836602834504
0.0036049030444305387     603.1138810623371
0.0038061191011872996     602.9284772556153
0.004007595631967136      602.7274488632854
0.00420959207329518       602.5107958853471
0.00441236586612622       602.2785183218006
0.004615139632985625      602.0146270758388
0.004817136048636202      601.7472818647124
0.005018612553936322      601.4764826884214
0.005219828585313435      601.2022295469657
0.005421044586718146      600.9245224403455
0.0056225210022172924     600.6433613685605
0.005824517268584787      600.3587463316111
0.006027290827249049      600.070677329497
0.006217890949519272      599.7704975030304
0.006407844130704021      599.4888453455821
0.0065973647866391935     599.2257208571527
0.00678666880286996       598.9811240377419
0.006975972806121895      598.7550548873497
0.007165493423165078      598.547513405976
0.007355446539677438      598.358499593621
0.007546046571713631      598.1880134502846
0.00770633524869351       598.0606988983017
0.007866237248851195      597.9512210637948
0.008025880956992212      597.8595799467637
0.008185395381580456      597.7857755472085
0.008344909844757132      597.729807865129
0.008504553668569658      597.6916769005255
0.008664455861201733      597.6713826533979
0.008824744806995652      597.6689251237461
0.008985029143401957      597.6862284323317
0.009144928762683142      597.7255580166459
0.009304571537041926      597.7869138766889
0.009464085956369179      597.8702960124606
0.00962360082072762       597.975704423961
0.009783244929102828      598.1031391111901
0.009943146768167231      598.252600074148
0.010103434204802428      598.4240873128346
0.010294032985212885      598.6212790761492
0.010483984610427306      598.8384702489019
0.01067350371534381       599.0756608310924
0.010862806406064813      599.3328508227208
0.011052109529861487      599.6100402237872
0.011241629932518437      599.9072290342916
0.011431583715703804      600.224417254234
0.011622185507008923      600.5616048836143
0.011824959091632737      600.8940411370389
0.012026955383669057      601.2189751456542
0.012228431824642762      601.5364069094602
0.01242964785142546       601.8463364284569
0.012630863908182311      602.1487637026443
0.012832340438962243      602.4436887320223
0.01303433688029038       602.7311115165911
0.013237110673121513      603.0110320563505
0.013439884439981065      603.2634539720185
0.013641880855631786      603.4960756608332
0.013843357360932049      603.7088971227943
0.014044573392309304      603.9019183579019
0.014245789393714157      604.0751393661559
0.014447265809213447      604.2285601475565
0.014649262075581083      604.3621807021036
0.01485203563424549       604.4760010297971
0.015042635756515686      604.5703001882633
0.015232588937700405      604.6477180761684
0.015422109593635547      604.7082546935128
0.015611413609866287      604.7519100402963
0.015800717613118194      604.7786841165189
0.01599023823016135       604.7885769221806
0.01618019134667368       604.7815884572815
0.016370791378709844      604.7577187218214
0.016531080055689654      604.7108699024136
0.01669098205584727       604.6606448988244
0.016850625763988217      604.6070437110537
0.017010140188576394      604.5500663391017
0.017169654651752998      604.4897127829681
0.017329298475565455      604.4259830426531
0.017489200668197463      604.3588771181566
0.01764948961399131       604.2883950094787
0.01780977395039525       604.1858741758925
0.017969673569674088      604.0714813622366
0.018129316344030533      603.9452165685105
0.01828883076335545       603.8070797947146
0.01844834562771156       603.6570710408486
0.01860798973608443       603.4951903069126
0.018767891575146484      603.3214375929067
0.018928179011779317      603.1358128988307
0.019118777792188433      602.8542634718368
0.019308729417401523      602.5501890319327
0.019498248522316707      602.2235895791183
0.019687551213036395      601.8744651133937
0.019876854336831753      601.5028156347588
0.02006637473948738       601.1086411432137
0.020256328522671414      600.6919416387582
0.020446930313975188      600.2527171213925
0.02064970389860279       599.7246125462235
0.02085170019064286       599.183564517359
0.02105317663162028       598.6295730347987
0.02125439265840668       598.0626380985428
0.021455608715167235      597.4827597085912
0.02165708524595088       596.8899378649438
0.021859081687282764      596.2841725676009
0.02206185548011769       595.6654638165622
0.022264629246980954      595.0482256878668
0.022466625662635346      594.4433761303039
0.022668102167939252      593.8509151438736
0.022869318199320136      593.270842728576
0.023070534200728618      592.7031588844109
0.023272010616231548      592.1478636113785
0.023474006882602858      591.6049569094787
0.02367678044127098       591.0744387787115
0.02386738056353977       590.5625962060334
0.024057333744723106      590.0856733368807
0.02424685440065687       589.6436701712535
0.024436158416886237      589.2365867091515
0.02462546242013677       588.8644229505751
0.024814983037178547      588.527178895524
0.025004936153689494      588.2248545439984
0.025195536185724256      587.9574498959981
0.0253558248627017        587.7277872132639
0.025515726862856965      587.5279277026896
0.025675370570995573      587.3578713642751
0.02583488499558142       587.2176181980204
0.02599439945875569       587.1071682039257
0.02615404328256581       587.0265213819907
0.026313945475195465      586.9756777322157
0.026474234420986946      586.9546372546005
0.026634518757392422      586.9580911313292
0.02679441837667279       586.9878711140087
0.026954061151030752      587.0439772026392
0.02711357557035719       587.1264093972206
0.027273090434714816      587.2351676977529
0.027432734543089202      587.3702521042361
0.027592636382152785      587.5316626166701
0.02775292381878715       587.7193992350551
0.02794352259919713       587.953767872456
0.02813347422441108       588.2219174823122
0.028322993329327112      588.523848064624
0.028512296020047647      588.8595596193913
0.02870159914384385       589.2290521466142
0.028891119546500334      589.6323256462928
0.02908107332968523       590.0693801184267
0.029271675120989875      590.5402155630162
0.02947444870561504       591.0568730311622
0.029676444997652693      591.5854141607853
0.02987792143862772       592.1258389518848
0.030079137465411736      592.6781474044614
0.030280353522169904      593.2423395185147
0.030481830052951155      593.8184152940447
0.030683826494280624      594.4063747310516
0.030886600287113104      595.0062178295353
0.03108937405397396       595.5938603760472
0.03129137046962597       596.1749554988612
0.03149284697492751       596.7495031979772
0.03169406300630604       597.3175034733954
0.03189527900771217       597.8789563251156
0.03209675542321274       598.4338617531379
0.03229875168958166       598.9822197574622
0.03250152524824737       599.5240303380887
0.03269212537051706       599.9636061937917
0.03288207855170127       600.3786827823965
0.033071599207635916      600.7692601039029
0.033260903223866156      601.1353381583109
0.033450207227117564      601.4769169456206
0.033639727844160215      601.7939964658319
0.03382968096067204       602.0865767189449
0.034020280992707694      602.3546577049594
0.034180569669686675      602.5452823739982
0.03434047166984347       602.7235065355536
0.0345001153779836        602.8893301896261
0.03465962980257096       603.0427533362154
0.03481914426574675       603.1837759753215
0.034978788089558385      603.3123981069446
0.03513869028218957       603.4286197310844
0.035298979227982585      603.5324408477411
