% Model:              brazing.mph
% Version:            COMSOL 5.3.0.223
% Date:               Oct 22 2018, 14:47
% Dimension:          1
% Nodes:              225
% Expressions:        1
% Description:        Line graph
% x                       Height
0                         632.0969198393115
2.3022181212578358E-4     631.9590656893133
4.5999325066962656E-4     631.7959849983941
6.894940081029028E-4      631.6076777665536
9.189044129547812E-4      631.394143993792
0.001148405006736289      631.1553836801094
0.0013781761183620641     630.8913968255054
0.001608397441069865      630.6021834299803
0.001839314118928521      629.9113905003773
0.0020697760201574002     629.2259373983957
0.002299964597801726      628.5458241240354
0.0025300619515304015     627.8710506772967
0.0027602503975112853     627.2016170581799
0.0029907120357255193     626.5375232666839
0.003221628319839081      625.8787693028098
0.0034518885683530987     625.0035831318668
0.0036816980188178403     624.1203286074028
0.003911236592567028      623.2290057294178
0.004140684848157368      622.3296144979118
0.004370223557282477      621.4221549128849
0.004600033278179856      620.5066269743369
0.004830293931548535      619.5830306822679
0.005060048526376791      618.4743543809126
0.005289355629682316      617.3785206053002
0.005518393850920054      616.295529355431
0.005747342428834         615.2253806313048
0.00597638081262499       614.1680744329221
0.006205688240655705      613.1236107602822
0.006435443321622868      612.0919896133855
0.006665339619110656      610.9801246253326
0.006894787442849326      609.8888601268361
0.007123965728649401      608.8181961178958
0.007353054043912613      607.768132598512
0.007582232167524012      606.7386695686847
0.007811679667266285      605.7298070284135
0.008041575479707366      604.7415449776988
0.008271887219609135      603.7464714069055
0.008501747728772392      602.7871041405367
0.008731337046705121      601.8634431785924
0.008960835851156599      600.9754885210729
0.009190425033567954      600.123240167978
0.009420285272008154      599.3066981193075
0.009650596606620833      598.5258623750617
0.009881512912836019      597.7726783189185
0.010111974573021956      597.068710433542
0.010342163040896366      596.413958718932
0.010572260416492441      595.8084231750887
0.010802449016030204      595.2521038020126
0.011032910939230619      594.7450005997027
0.011263827639190652      594.2871135681597
0.011494048967061755      593.851800993609
0.011723820083820682      593.4921890467448
0.011953320682717213      593.2082777275672
0.012182731092678062      593.0000670360763
0.012412231855226382      592.867556972272
0.012642003298903411      592.8107475361542
0.012872225116192546      592.8296387277231
0.013102446994778118      592.6961532926941
0.013332218499393473      592.6597716902609
0.01356171932266464       592.7204939204232
0.013791129793276359      592.8783199831812
0.01402063045289555       593.1332498785351
0.014250401630592404      593.4852836064844
0.014480623019759359      593.9344211670295
0.014711539835704642      594.2084352011158
0.014942001874208778      594.5653591432364
0.015172190588640395      595.0051929933912
0.01540228807899374       595.5279367515808
0.015632476661762654      596.1335904178048
0.015862938437253588      596.822153992063
0.01609385485945594       597.5936274743559
0.016324115336228646      598.2768341403756
0.016553925013622208      598.9993796025299
0.016783463813500554      599.7612638608186
0.017012912294953733      600.562486915242
0.01724245123020976       601.4030487658002
0.01747226117803945       602.2829494124926
0.017702522059672054      603.2021888553198
0.017932276794613372      604.1230351538661
0.018161584037218948      605.06970730987
0.018390622397267263      606.0422053233312
0.018619571113827754      607.0405291942501
0.018848609636427344      608.0646789226267
0.019077917203754128      609.1146545084607
0.019307672424828403      610.1904559517524
0.019537568573699274      611.171271251584
0.01976701624968263       612.1674064857328
0.019996194388245302      613.1788616541985
0.020225282556443316      614.2056367569813
0.020454460532815345      615.2477317940815
0.02068390788479834       616.3051467654983
0.020913803548616574      617.3778816712324
0.02114411498977932       618.238165522084
0.021373975201947604      619.1113996254909
0.02160356422393484       619.9975839814529
0.02183306273279162       620.8967185899704
0.02206265161925901       621.8088034510434
0.02229251156070728       622.7338385646714
0.02252282259658549       623.6718239308549
0.022753738766914562      624.2803946659504
0.022984200292012823      624.8906893823686
0.023214388625279938      625.502708080109
0.023444485866429166      626.1164507591718
0.023674674331359946      626.7319174195574
0.023905136119473275      627.3491080612649
0.024136052683548088      627.9680226842952
0.024366274021741702      628.1823995823056
0.024596045148762867      628.3990948199197
0.024825545757885373      628.6181083971375
0.02505495617806012       628.8394403139591
0.02528445695083446       629.0630905703848
0.025514228404773787      629.289059166414
0.025744450232385536      629.517346102047
0.025974672267095825      629.3771750221077
0.026204443926923768      629.2171304205095
0.02643394490485871       629.0372122972523
0.02666335552995085       628.8374206523359
0.026892856344233315      628.6177554857611
0.02712262767714175       628.3782167975268
0.02735284922243193       628.1188045876337
0.027583766528201624      627.4540217160572
0.027814229053652367      626.7820954328557
0.028044418253299775      626.1030257380288
0.02827451622829193       625.4168126315767
0.028504705296278778      624.7234561134997
0.028735167558720572      624.022956183797
0.028966084470753738      623.3153128424693
0.029196345605491433      622.441679776219
0.02942615593701711       621.5374408339709
0.02965569538872289       620.6025960157251
0.029885144521236064      619.6371453214816
0.030114684108324883      618.6410887512408
0.030344494710297387      617.6144263050018
0.030574756249911007      616.5571579827654
0.030804511377321087      615.4086398292825
0.031033819010118435      614.2515809162749
0.031262857758987544      613.0859812437421
0.03149180686390927       611.9118408116848
0.031720845775323685      610.7291596201029
0.031950153732830305      609.5379376689957
0.032179909346355486      608.3381749583639
0.0324098051544111        607.1526493554989
0.032639252491552244      605.9749188563459
0.03286843029245836       604.8049834609051
0.0330975181233935        603.6428431691762
0.03332669576210278       602.4884979811598
0.03355614277523119       601.341947896855
0.033786038098215655      600.2031929162627
0.034016348759356954      599.1166751617639
0.03424620819605658       598.0646937871579
0.034475796445315066      597.047248792445
0.03470529418235937       596.0643401776247
0.03493488229610333       595.1159679426974
0.035164741462093585      594.2021320876627
0.03539505171796626       593.3228326125211
0.035625967353597694      592.50795830288
0.03585642834714083       591.7490744773011
0.036086616150743635      591.0461811357843
0.03631671286286018       590.3992782783297
0.03654690079812825       589.8083659049377
0.036777362054689705      589.2734440156074
0.03700827808407173       588.7945126103397
0.03723849938140827       588.3685091379979
0.03746827046781093       588.0247770806792
0.03769777103645843       587.7633164383832
0.03792718141620601       587.5841272111103
0.0381566821485052        587.4872093988608
0.03838645356182577       587.4725630016338
0.03861667534858004       587.54018801943
0.038846895274787324      587.5060285588971
0.039076664838430766      587.574228291476
0.03930616372759302       587.7447872171663
0.03953557226638858       588.0177053359686
0.039765070991905134      588.3929826478826
0.039994840228642616      588.8706191529083
0.040225059665450036      589.4506148510457
0.04045597761776665       589.9109489424222
0.04068644078597457       590.4557528449157
0.04091663062609736       591.0850265585256
0.041146729240799984      591.7987700832521
0.04137691894925231       592.5969834190954
0.04160738185443156       593.4796665660551
0.04183829941298208       594.4468195241316
0.04206856149768976       595.3587691820491
0.04229837277362926       596.3078311417012
0.04252791316640542       597.2940054030875
0.04275736323887129       598.3172919662082
0.04298690376702529       599.3776908310635
0.04321671531340127       600.475201997653
0.04344697780296935       601.6098254659771
0.043676731016186174      602.8024815759431
0.04390603674591497       604.0044204294245
0.04413507359840861       605.2156420264212
0.04436402080919017       606.4361463669331
0.044593057824233256      607.6659334509607
0.04482236387867965       608.905003278503
0.045052117578024006      610.153355849561
0.045282012653644836      611.4088239937623
0.045511459262636354      612.6490992691802
0.04574063633797325       613.8741816758146
0.04596972344420469       615.0840712136654
0.046198900357357554      616.2787678827332
0.046428346642361965      617.4582716830171
0.04665824123294997       618.6225826145177
0.04688855484177433       619.7017388100281
0.04711841720894409       620.7595183225263
0.04734800837831597       621.7959211520122
0.04757750903201372       622.8109472984859
0.047807100065861544      623.8045967619477
0.04803696216230292       624.7768695423968
0.04826727536583021       625.7277656398338
0.048498193048686675      626.4696788211021
0.048728656077441146      627.187717625183
0.04895884590902903       627.8818820520763
0.04918894464672031       628.5521721017819
0.04941913460997818       629.1985877743006
0.04964959790176041       629.8211290696311
0.04988051597838159       630.4197959877744
0.05011073543954296       630.6867369763314
0.0503405047004922        630.944560675919
0.05057000345013497       631.1932670865366
0.05079941201302823       631.4328562081848
0.05102891092631677       631.6633280408635
0.05125868051417213       631.8846825845721
0.051488900464733596      632.0969198393115
