% Model:              brazing.mph
% Version:            COMSOL 5.3.0.223
% Date:               Oct 22 2018, 15:16
% Dimension:          1
% Nodes:              145
% Expressions:        1
% Description:        Line graph
% x                       Height
0                         615.6507671015196
1.8037553861809572E-4     615.8300759792978
3.5951128344368776E-4     615.9717321130775
5.377561773732229E-4      616.0757355028588
7.154644111300318E-4      616.142086148642
8.929933875627798E-4      616.1707840504266
0.0010707015910786408     616.1618292082129
0.0012489464247083767     616.115221622001
0.0014280820795340731     616.0309612917903
0.0016084574989771061     615.9090482175816
0.0017793134314883058     615.8553981101248
0.0019491114898538484     615.7841531476005
0.002118149876008701      615.6953133300088
0.0022867308232763497     615.5888786573496
0.002455159027530182      615.4648491296228
0.0026237400128558564     615.3232247468287
0.0027927784749207734     615.164005508967
0.0029625766466419693     614.9871914160378
0.0031334327293582195     614.7927824680411
0.0033042867504275058     614.6484673650177
0.0034740828875811486     614.5019541603978
0.0036431193341009516     614.3532428541816
0.0038116983146850476     614.202333446369
0.003980124516686077      614.0492259369602
0.004148703455848711      613.8939203259549
0.004317739819749776      613.7364166133532
0.004487535833529769      613.5767147991551
0.004658389691119368      613.4148148833607
0.0048387629974717405     613.3106057687584
0.005017896580971026      613.2136727354164
0.005196139373513023      613.1240157833349
0.0053738455543625        613.041634912514
0.005551372514551955      612.9665301229536
0.005729078726427549      612.8987014146537
0.005907321580834967      612.838148787614
0.006086455256670912      612.7848722418349
0.006266828685292636      612.7388717773165
0.0064472042239161545     612.8368674831923
0.0066263399687470585     612.9438184695724
0.00680458486268183       613.0597247364573
0.0069822930964438265     613.1845862838469
0.007159822072881748      613.3184031117408
0.007337530276402798      613.4611752201395
0.007515775110037768      613.6129026090425
0.007694910764868775      613.7735852784502
0.007875286184317232      613.9432232283625
0.008046142116827224      614.1488663030732
0.008215940175191578      614.3501466203653
0.008384978561345261      614.547064180239
0.008553559508611747      614.7396189826942
0.008721987712864422      614.9278110277309
0.008890568698188937      615.1116403153491
0.00905960716025268       615.2911068455487
0.009229405331972688      615.4662106183298
0.009400261414687729      615.6369516336925
0.009571115435747398      615.8753352549959
0.009740911572891598      616.092390898728
0.009909948019402086      616.2881185648891
0.010078526999976944      616.4625182534792
0.010246953201968763      616.6155899644981
0.010415532141122159      616.7473336979459
0.010584568505013912      616.8577494538226
0.010754364518784467      616.9468372321282
0.010925218376364454      617.0145970328628
0.011105591682722255      617.1359532895275
0.01128472526622686       617.2233851606128
0.011462968058774099      617.2768926461191
0.011640674239628768      617.2964757460462
0.011818201199823401      617.2821344603941
0.01199590741170419       617.2338687891629
0.012174150266116847      617.1516787323524
0.012353283941958112      617.0355642899627
0.012533657370585264      616.8855254619939
0.01271403176453574       616.8324326562636
0.012893166387683227      616.7407318302065
0.013071410176518557      616.6104229838232
0.013249117315197753      616.4415061171134
0.013426645199902413      616.233981230077
0.013604352308338922      615.9878483227141
0.01378259603687098       615.7031073950247
0.013961730570013379      615.3797584470088
0.014142104844781908      615.0178014786665
0.014312959944399205      614.7022037567123
0.014482757184992078      614.3694869872362
0.014651794764271453      614.0196511702385
0.014820374911240972      613.652696305719
0.014988802317395246      613.2686223936777
0.01515738250242126       612.8674294341146
0.015326420157607648      612.4491174270296
0.015496217511551624      612.013686372423
0.015667072761367945      611.5611362702945
0.01583792791479403       611.1502117435373
0.016007725163749622      610.7472814785923
0.01617676270725794       610.35234547546
0.01634534277588875       609.9654037341403
0.016513770062946447      609.5864562546328
0.01668235009015449       609.2155030369379
0.016851387551041475      608.8525440810555
0.017021184676619543      608.4975793869854
0.017192039666560827      608.1506089547281
0.017372413817338207      607.8488041140471
0.017551548228302124      607.5707082187631
0.017729791836073705      607.3163212688767
0.017907498824762332      607.0856432643875
0.018085026590318725      606.8786742052956
0.018262733610032132      606.6954140916012
0.018440977279666457      606.5358629233037
0.018620111782963036      606.4000207004037
0.018800486056004474      606.2878874229011
0.018980860449944497      606.3370944471925
0.019159995073081745      606.4135102145269
0.019338238861906984      606.517134724905
0.01951594600057618       606.6479679783262
0.019693473885270874      606.806009974791
0.019871180993697383      606.991260714299
0.020049424722219357      607.2037201968502
0.02022855925535152       607.4433884224447
0.0204089335301096        607.7102653910829
0.02057978862980686       608.0137488083084
0.020749585870478253      608.3225940755403
0.020918623449835097      608.636801192779
0.021087203596881453      608.9563701600242
0.021255631003112355      609.2813009772759
0.021424211188215206      609.6115936445341
0.021593248843479067      609.9472481617989
0.021763046197501558      610.2882645290701
0.02193390144739785       610.6346427463482
0.022104756600747556      611.0658858912371
0.02227455384962815       611.4793902498157
0.02244359139306247       611.8751558220841
0.022612171461619885      612.2531826080424
0.022780598748604386      612.6134706076903
0.022949178775739036      612.9560198210281
0.02311821623655202       613.2808302480556
0.023288013362055097      613.5879018887729
0.023458868351919994      613.87723474318
0.02363924250270423       614.2098544186799
0.023818376913674867      614.5085839630365
0.023996620521453065      614.7734233762499
0.02417432751014825       615.0043726583197
0.02435185527571118       615.2014318092464
0.024529562295431146      615.3646008290297
0.02470780596507209       615.4938797176696
0.024886940468375387      615.5892684751661
0.025067314741423676      615.6507671015196
