% Model:              brazing.mph
% Version:            COMSOL 5.3.0.223
% Date:               Oct 22 2018, 15:03
% Table:              Table 3 - 
% Time (s)               Temperature (Cp_Al = 900, k_Al = 160, sigma_Al = 3.774E7, rho_Al = 2700, Cp_inlet = 900, k_inlet = 160, sigma_inlet = 3.774E7, rho_inlet = 2700, Cp_outlet = 900, k_outlet = 160, sigma_outlet = 3.774E7, rho_outlet = 2862, Cp_outlet_sleeve = 900, k_outlet_sleeve = 160, sigma_outlet_sleeve = 3.774E7, rho_outlet_sleeve = 2700, Cp_inlet_sleeve = 900, k_inlet_sleeve = 160, sigma_inlet_sleeve = 3.774E7, rho_inlet_sleeve = 2700) (degC), Point: 60Temperature (Cp_Al = 900, k_Al = 160, sigma_Al = 3.774E7, rho_Al = 2700, Cp_inlet = 900, k_inlet = 160, sigma_inlet = 3.774E7, rho_inlet = 2700, Cp_outlet = 900, k_outlet = 160, sigma_outlet = 3.774E7, rho_outlet = 2862, Cp_outlet_sleeve = 900, k_outlet_sleeve = 160, sigma_outlet_sleeve = 3.774E7, rho_outlet_sleeve = 2700, Cp_inlet_sleeve = 900, k_inlet_sleeve = 160, sigma_inlet_sleeve = 3.774E7, rho_inlet_sleeve = 2700) (degC), Point: 98Temperature (Cp_Al = 900, k_Al = 160, sigma_Al = 3.774E7, rho_Al = 2700, Cp_inlet = 900, k_inlet = 160, sigma_inlet = 3.774E7, rho_inlet = 2700, Cp_outlet = 900, k_outlet = 160, sigma_outlet = 3.774E7, rho_outlet = 2862, Cp_outlet_sleeve = 900, k_outlet_sleeve = 160, sigma_outlet_sleeve = 3.774E7, rho_outlet_sleeve = 2700, Cp_inlet_sleeve = 900, k_inlet_sleeve = 160, sigma_inlet_sleeve = 3.774E7, rho_inlet_sleeve = 2700) (degC), Point: 134Temperature (Cp_Al = 900, k_Al = 160, sigma_Al = 3.774E7, rho_Al = 2700, Cp_inlet = 900, k_inlet = 160, sigma_inlet = 3.774E7, rho_inlet = 2700, Cp_outlet = 900, k_outlet = 160, sigma_outlet = 3.774E7, rho_outlet = 2862, Cp_outlet_sleeve = 900, k_outlet_sleeve = 160, sigma_outlet_sleeve = 3.774E7, rho_outlet_sleeve = 2700, Cp_inlet_sleeve = 900, k_inlet_sleeve = 160, sigma_inlet_sleeve = 3.774E7, rho_inlet_sleeve = 2700) (degC), Point: 154Temperature (Cp_Al = 900, k_Al = 160, sigma_Al = 3.774E7, rho_Al = 2700, Cp_inlet = 900, k_inlet = 160, sigma_inlet = 3.774E7, rho_inlet = 2700, Cp_outlet = 900, k_outlet = 160, sigma_outlet = 3.774E7, rho_outlet = 2862, Cp_outlet_sleeve = 900, k_outlet_sleeve = 160, sigma_outlet_sleeve = 3.774E7, rho_outlet_sleeve = 2700, Cp_inlet_sleeve = 900, k_inlet_sleeve = 160, sigma_inlet_sleeve = 3.774E7, rho_inlet_sleeve = 2700) (degC), Point: 172Temperature (Cp_Al = 900, k_Al = 160, sigma_Al = 3.774E7, rho_Al = 2700, Cp_inlet = 900, k_inlet = 160, sigma_inlet = 3.774E7, rho_inlet = 2700, Cp_outlet = 900, k_outlet = 160, sigma_outlet = 3.774E7, rho_outlet = 2862, Cp_outlet_sleeve = 900, k_outlet_sleeve = 160, sigma_outlet_sleeve = 3.774E7, rho_outlet_sleeve = 2700, Cp_inlet_sleeve = 900, k_inlet_sleeve = 160, sigma_inlet_sleeve = 3.774E7, rho_inlet_sleeve = 2700) (degC), Point: 210Temperature (Cp_Al = 900, k_Al = 160, sigma_Al = 3.774E7, rho_Al = 2700, Cp_inlet = 900, k_inlet = 160, sigma_inlet = 3.774E7, rho_inlet = 2700, Cp_outlet = 900, k_outlet = 160, sigma_outlet = 3.774E7, rho_outlet = 2862, Cp_outlet_sleeve = 900, k_outlet_sleeve = 160, sigma_outlet_sleeve = 3.774E7, rho_outlet_sleeve = 2700, Cp_inlet_sleeve = 900, k_inlet_sleeve = 160, sigma_inlet_sleeve = 3.774E7, rho_inlet_sleeve = 2700) (degC), Point: 232Temperature (Cp_Al = 900, k_Al = 160, sigma_Al = 3.774E7, rho_Al = 2700, Cp_inlet = 900, k_inlet = 160, sigma_inlet = 3.774E7, rho_inlet = 2700, Cp_outlet = 900, k_outlet = 160, sigma_outlet = 3.774E7, rho_outlet = 2862, Cp_outlet_sleeve = 900, k_outlet_sleeve = 160, sigma_outlet_sleeve = 3.774E7, rho_outlet_sleeve = 2700, Cp_inlet_sleeve = 900, k_inlet_sleeve = 160, sigma_inlet_sleeve = 3.774E7, rho_inlet_sleeve = 2700) (degC), Point: 270
0                        21.13090037395915        21.108320054386752       21.024581518441607       21.00956246736922        21.01145014921252        21.001753394033983       21.118843622633676       21.14367180808904
3                        260.06130552135096       266.9128647608642        259.6227070915577        250.79063199174448       223.23826748855345       217.59586586057168       269.36400639224746       262.24530909664054
6                        381.0453892376519        391.7704543262861        384.3828248145363        375.5349590684509        343.2976348015429        337.4709472319606        394.00121529120815       381.033067730883
9                        454.99271932085287       462.41280638759326       454.97119291142087       446.1172484249589        416.4931917058151        410.7913512704371        464.52140577349087       453.57411478904874
12                       505.94210860175804       508.99676908433923       501.5218504569294        492.66695384623245       466.99591398009454       461.37495963369827       511.03175330116096       503.69550747995197
15                       544.9124207982164        544.0245146690687        536.5270621876867        527.6742740367449        505.67909146702425       500.1359092553556        546.0119480620357        542.1592457429871
18                       575.9809398270268        571.655388565644         564.1428053853656        555.2932723439625        536.561738281616         531.0943535887598        573.6122486510696        572.9255104955779
21                       602.2355641887469        594.9576512615619        587.4346267164995        578.5885908904087        562.6909209740934        557.2950734886316        596.8942372574319        598.9966978767875
24                       625.4224410303219        615.5949310648318        608.0645371780923        599.2219134562705        585.7900163452347        580.4598420663407        617.5177668103914        622.0709431807618
27                       646.5379806750093        634.4892414127879        626.9535456489416        618.114130403919         606.842042301374         601.5713156691381        636.402596869394         643.1170108500218
