% Model:              brazing.mph
% Version:            COMSOL 5.3.0.223
% Date:               Oct 22 2018, 15:40
% Table:              Table 3 - 
% Time (s)               Temperature (Cp_Al = 900, k_Al = 160, sigma_Al = 3.774E7, rho_Al = 2700, Cp_inlet = 900, k_inlet = 160, sigma_inlet = 3.774E7, rho_inlet = 2700, Cp_outlet = 900, k_outlet = 160, sigma_outlet = 3.774E7, rho_outlet = 2700, Cp_outlet_sleeve = 900, k_outlet_sleeve = 160, sigma_outlet_sleeve = 3.774E7, rho_outlet_sleeve = 2700, Cp_inlet_sleeve = 900, k_inlet_sleeve = 160, sigma_inlet_sleeve = 3.774E7, rho_inlet_sleeve = 2700) (degC), Point: 60Temperature (Cp_Al = 900, k_Al = 160, sigma_Al = 3.774E7, rho_Al = 2700, Cp_inlet = 900, k_inlet = 160, sigma_inlet = 3.774E7, rho_inlet = 2700, Cp_outlet = 900, k_outlet = 160, sigma_outlet = 3.774E7, rho_outlet = 2700, Cp_outlet_sleeve = 900, k_outlet_sleeve = 160, sigma_outlet_sleeve = 3.774E7, rho_outlet_sleeve = 2700, Cp_inlet_sleeve = 900, k_inlet_sleeve = 160, sigma_inlet_sleeve = 3.774E7, rho_inlet_sleeve = 2700) (degC), Point: 98Temperature (Cp_Al = 900, k_Al = 160, sigma_Al = 3.774E7, rho_Al = 2700, Cp_inlet = 900, k_inlet = 160, sigma_inlet = 3.774E7, rho_inlet = 2700, Cp_outlet = 900, k_outlet = 160, sigma_outlet = 3.774E7, rho_outlet = 2700, Cp_outlet_sleeve = 900, k_outlet_sleeve = 160, sigma_outlet_sleeve = 3.774E7, rho_outlet_sleeve = 2700, Cp_inlet_sleeve = 900, k_inlet_sleeve = 160, sigma_inlet_sleeve = 3.774E7, rho_inlet_sleeve = 2700) (degC), Point: 134Temperature (Cp_Al = 900, k_Al = 160, sigma_Al = 3.774E7, rho_Al = 2700, Cp_inlet = 900, k_inlet = 160, sigma_inlet = 3.774E7, rho_inlet = 2700, Cp_outlet = 900, k_outlet = 160, sigma_outlet = 3.774E7, rho_outlet = 2700, Cp_outlet_sleeve = 900, k_outlet_sleeve = 160, sigma_outlet_sleeve = 3.774E7, rho_outlet_sleeve = 2700, Cp_inlet_sleeve = 900, k_inlet_sleeve = 160, sigma_inlet_sleeve = 3.774E7, rho_inlet_sleeve = 2700) (degC), Point: 154Temperature (Cp_Al = 900, k_Al = 160, sigma_Al = 3.774E7, rho_Al = 2700, Cp_inlet = 900, k_inlet = 160, sigma_inlet = 3.774E7, rho_inlet = 2700, Cp_outlet = 900, k_outlet = 160, sigma_outlet = 3.774E7, rho_outlet = 2700, Cp_outlet_sleeve = 900, k_outlet_sleeve = 160, sigma_outlet_sleeve = 3.774E7, rho_outlet_sleeve = 2700, Cp_inlet_sleeve = 900, k_inlet_sleeve = 160, sigma_inlet_sleeve = 3.774E7, rho_inlet_sleeve = 2700) (degC), Point: 172Temperature (Cp_Al = 900, k_Al = 160, sigma_Al = 3.774E7, rho_Al = 2700, Cp_inlet = 900, k_inlet = 160, sigma_inlet = 3.774E7, rho_inlet = 2700, Cp_outlet = 900, k_outlet = 160, sigma_outlet = 3.774E7, rho_outlet = 2700, Cp_outlet_sleeve = 900, k_outlet_sleeve = 160, sigma_outlet_sleeve = 3.774E7, rho_outlet_sleeve = 2700, Cp_inlet_sleeve = 900, k_inlet_sleeve = 160, sigma_inlet_sleeve = 3.774E7, rho_inlet_sleeve = 2700) (degC), Point: 210Temperature (Cp_Al = 900, k_Al = 160, sigma_Al = 3.774E7, rho_Al = 2700, Cp_inlet = 900, k_inlet = 160, sigma_inlet = 3.774E7, rho_inlet = 2700, Cp_outlet = 900, k_outlet = 160, sigma_outlet = 3.774E7, rho_outlet = 2700, Cp_outlet_sleeve = 900, k_outlet_sleeve = 160, sigma_outlet_sleeve = 3.774E7, rho_outlet_sleeve = 2700, Cp_inlet_sleeve = 900, k_inlet_sleeve = 160, sigma_inlet_sleeve = 3.774E7, rho_inlet_sleeve = 2700) (degC), Point: 232Temperature (Cp_Al = 900, k_Al = 160, sigma_Al = 3.774E7, rho_Al = 2700, Cp_inlet = 900, k_inlet = 160, sigma_inlet = 3.774E7, rho_inlet = 2700, Cp_outlet = 900, k_outlet = 160, sigma_outlet = 3.774E7, rho_outlet = 2700, Cp_outlet_sleeve = 900, k_outlet_sleeve = 160, sigma_outlet_sleeve = 3.774E7, rho_outlet_sleeve = 2700, Cp_inlet_sleeve = 900, k_inlet_sleeve = 160, sigma_inlet_sleeve = 3.774E7, rho_inlet_sleeve = 2700) (degC), Point: 270
0                        21.1309478721156         21.108320054388514       21.02458151844155        21.009562467369847       21.011454506776715       21.001755265429836       21.118843622642373       21.143725915192704
3                        264.3717737832494        266.9315703659844        259.64081866889023       250.8097401060404        227.54049673863807       221.8748605655773        269.38251380564463       266.5067432399777
6                        386.3899388944328        391.82122524731494       384.4320015061563        375.58663446888215       348.6014340830138        342.78877936220056       394.05128995626114       386.30907177387087
9                        460.3899307460225        462.5265191883044        455.0828747888171        446.2318816607867        421.85082848203285       416.17322589004084       464.6340089303329        458.9159183637222
12                       511.1842398982733        509.1848111415753        501.70776966451353       492.8557834159076        472.203573112369         466.6145258870657        511.21846643666015       508.9002477946476
15                       550.0121539805756        544.2716410594039        536.7720885484363        527.9220736848108        510.74924898341465       505.24344059998054       546.2576575538803        547.2370297737609
18                       580.9898336303155        571.9494265504625        564.434801278504         555.587903976718         541.5451767636893        536.1187862329857        573.9048501051927        577.9244514812915
21                       607.2145056959635        595.2920992306013        587.7670809157456        578.9235863236588        567.6473633572298        562.2949392978297        597.2272520329484        603.9741214599264
24                       630.4139865052304        615.9659917992444        608.4336330759398        599.5934999904738        590.7609385244842        585.4758584120656        617.8874024811685        627.066453938608
27                       651.5611365152236        634.8949567900269        627.3573094176279        618.5203641433102        611.8456474437405        606.621134344505         636.8068937716899        648.1474334815897
