% Model:              brazing.mph
% Version:            COMSOL 5.3.0.223
% Date:               Oct 22 2018, 15:21
% Dimension:          1
% Nodes:              225
% Expressions:        1
% Description:        Line graph
% x                       Height
0                         629.0908190388336
2.1191841480136804E-4     629.0046896014744
4.2353438892247565E-4     628.8796610856783
6.349689892252786E-4      628.7157334914457
8.463435942227858E-4      628.5129068187763
0.001057779685752053      628.2711810676706
0.001269398639759412      627.9905562381279
0.001481321517995422      627.6710323301486
0.0017252358262731596     627.244522125263
0.0019686866163640313     626.7871376631475
0.0022118589563155885     626.298878943802
0.002454938550168189      625.7797459672267
0.0026981113144448556     625.2297387334218
0.0029415629522145732     624.6488572423864
0.0031854785295931678     624.0371014941214
0.0034450106912723537     623.2825030982135
0.0037039863009040125     622.4964361177465
0.003962627412610827      621.6789005527203
0.0042211569424298        620.8298964031351
0.004479798094906585      619.949423668991
0.004738773785972872      619.0374823502876
0.004998306069542035      618.0940724470253
0.005274868491808245      616.9896594087173
0.005550758931995686      615.8682264207213
0.0058262454501036105     614.7297734830366
0.006101597285810183      613.5743005956639
0.006377084073678616      612.401807758603
0.006652975052596927      611.2122949718536
0.006929538280995558      610.005762235416
0.007206101510950518      608.7556004277516
0.007481992491406557      607.5229937128621
0.007757479280801014      606.3079420907472
0.00803283111802884       605.1104455614072
0.008308317637660222      603.9305041248422
0.008584208079380276      602.7681177810515
0.008860770503195153      601.6232865300358
0.009120302815147717      600.5486093652925
0.00937927853441616       599.515244970192
0.009637919714987194      598.5231933447344
0.009896449272866283      597.5724544889198
0.010155090412673047      596.6630284027483
0.010414066050518256      595.7949150862194
0.01067359824059789       594.9681145393336
0.010917512776055054      594.2150249255142
0.011160965100129169      593.5131286200099
0.011404139717480647      592.8624256228203
0.01164722176512739       592.2629159339459
0.011890396591516505      591.7145995533866
0.012133849333188814      591.2174764811421
0.012377764493855997      590.7715467172126
0.01258968694000722       590.4263056278313
0.012801305803204788      590.1218603763502
0.013012742322906452      589.8582109627691
0.013224118052332232      589.6353573870882
0.01343555464954572       589.4532996493075
0.013647173667633327      589.3120377494267
0.013859096345786744      589.2115716874462
0.014071014760598048      589.1680186436676
0.014282630734729056      589.1644580379875
0.01449406533504172       589.2008898704061
0.014705439940049088      589.2773141409233
0.014916876031588231      589.3937308495393
0.015128494985605482      589.5501399962537
0.015340417863851432      589.7465415810669
0.01558433217214941       589.9910771386751
0.015827782962260412      590.2941645184759
0.016070955302232025      590.6558037204692
0.016314034896104664      591.0759947446551
0.0165572076604014        591.5547375910337
0.01680065929819124       592.0920322596046
0.01704457487559009       592.6878787503683
0.01730410703726679       593.3381432550045
0.017563082646895985      594.0287143045786
0.01782172375860034       594.7595918990904
0.018080253288416847      595.5307760385402
0.01833889444089119       596.342266722928
0.018597870131955005      597.1940639522534
0.018857402415521692      598.0861677265168
0.019133964837753384      599.0438448678558
0.019409855277906563      600.0200509382395
0.019685341795980367      601.0147859376679
0.019960693631652874      602.0280498661409
0.0202361804194872        603.059842723659
0.020512071398371242      604.1101645102216
0.020788634626735362      605.1790152258291
0.02106519785666259       606.2238179462049
0.021341088837091095      607.2569030331149
0.021616575626458134      608.278270486559
0.02189192746365859       609.2879203065376
0.022167413983262562      610.2858524930505
0.02244330442495508       611.2720670460974
0.022719866848742224      612.2465639656787
0.022979399160698737      613.0637221662932
0.023238374879971102      613.8589470585914
0.023497016060546046      614.6322386425729
0.023755545618429033      615.383596918238
0.02401418675823971       616.1130218855867
0.024273162396088833      616.8205135446185
0.024532694586172417      617.506071895334
0.02477660912165014       618.0739275423232
0.02502006144574469       618.6086425736696
0.025263236063116538      619.1102169893733
0.025506318110783622      619.578650789434
0.025749492937193107      620.0139439738524
0.02599294567888585       620.4160965426274
0.026236860839573585      620.78510849576
0.026448783285734738      621.0515484890744
0.02666040214894219       621.3000834583182
0.026871838668653707      621.5307134034911
0.027083214398089334      621.7434383245931
0.027294650995312687      621.9382582216244
0.027506270013410168      622.1151730945847
0.02771819269157351       622.2741829434744
0.02793011110637494       622.3430789944111
0.028141727080496122      622.3928382650266
0.028353161680798985      622.4234607553209
0.028564536285796558      622.4349464652939
0.028775972377325904      622.4272953949462
0.028987591331333325      622.4005075442768
0.029199514209569403      622.3545829132865
0.02944342851784522       622.1729466987233
0.02968687930793418       621.9492025974498
0.02993005164788383       621.6833506094658
0.030173131241734534      621.3753907347714
0.0304163040060093        621.025322973367
0.0306597556437771        620.6331473252518
0.030903671221153783      620.1988637904265
0.031163203382828072      619.5795539623219
0.03142217899245488       618.9156207635264
0.03168082010415685       618.2070641940398
0.03193934963397098       617.4538842538622
0.032197990786442934      616.6560809429938
0.03245696647750436       615.813654261434
0.032716498761068635      614.9266042091833
0.03299306118333142       613.809972998376
0.03326895162351545       612.6725375911683
0.03354443814161999       611.5142979875603
0.03381978997732317       610.3352541875522
0.034095276765188226      609.135406191144
0.03437116774410313       607.9147539983353
0.03464773097249833       606.6732976091265
0.034924294202460265      605.3628821701698
0.03520018518292322       604.0725510427113
0.03547567197232456       602.802304226751
0.035751023809559274      601.552141722289
0.036026510329197556      600.3220635293254
0.036302400770924524      599.1120696478597
0.03657896319474637       597.9221600778924
0.036838495506703706      596.8040728460211
0.03709747122597688       595.7383756795199
0.037356112406552636      594.7250685783888
0.03761464196443644       593.7641515426277
0.03787328310424792       592.8556245722372
0.03813225874209787       591.9994876672164
0.03839179093218227       591.1957408275658
0.03863570546763781       590.468177056765
0.038879157791710306      589.8042983561905
0.03912233240906017       589.2041047258425
0.03936541445670531       588.667596165721
0.039608589283092806      588.194772675826
0.039852042024763494      587.7856342561572
0.04009595718542905       587.440180906715
0.040307879631580334      587.1749968525542
0.04051949849477797       586.9606046195431
0.0407309350144797        586.7970042076817
0.040942310743905544      586.68419561697
0.04115374734111909       586.6221788474085
0.04136536635920676       586.6109538989963
0.04157728903736024       586.650520771734
0.04178920745215007       586.7470325708676
0.042000823426259694      586.8928317770167
0.042212258026551035      587.087918390181
0.04242363263153709       587.3322924103609
0.0426350687230549        587.6259538375565
0.042846687677050764      587.9689026717673
0.04305861055527523       588.3611389129936
0.04330252486354604       588.8392066240285
0.043545975653630026      589.3843147555544
0.04378914799357473       589.9964633075707
0.044032227587420474      590.6756522800779
0.04427540035169028       591.4218816730761
0.04451885198945311       592.2351514865646
0.044762767566824783      593.1154617205441
0.045022299728516735      594.0816370213074
0.04528127533816108       595.0939580566716
0.045539916449880535      596.1524248266365
0.045798445979712124      597.2570373312022
0.046057087132201545      598.4077955703691
0.04631606282328052       599.6046995441363
0.046575595106862454      600.8477492525046
0.04685215752913061       602.1730555187335
0.04712804796931999       603.5213052253151
0.04740353448742985       604.8924983722497
0.04767888632313835       606.2866349595374
0.04795437311100872       607.703714987178
0.048230264089928976      609.1437384551716
0.048506827318329566      610.6067053635181
0.04878339054829114       611.9980175814183
0.049059281528753745      613.3691162816758
0.04933476831815475       614.7200014642905
0.0496101201553891        616.0506731292625
0.04988560667502701       617.361131276592
0.05016149711675364       618.6513759062785
0.050438059540575134      619.9214070183225
0.05069759185254397       620.945083393162
0.05095656757182859       621.9228938075125
0.05121520875241573       622.8548382613741
0.05147373831031092       623.7409167547468
0.051732379450133786      624.5811292876307
0.05199135508799517       625.3754758600255
0.05225088727809108       626.1239564719315
0.0524948018135407        626.7089407542737
0.052738254137607306      627.2357142863586
0.05298142875495131       627.7042770681862
0.05322451080259058       628.1146290997566
0.0534676856289722        628.4667703810699
0.05371113837063701       628.7607009121256
0.05395505353129665       628.9964206929242
0.05416697597743634       629.1338891201091
0.054378594840622414      629.2300298975613
0.05459003136031263       629.284843025281
0.05480140708972696       629.298328503268
0.05501284368692898       629.2704863315225
0.0552244627050051        629.2013165100443
0.05543638538314697       629.0908190388336
