% Model:              brazing.mph
% Version:            COMSOL 5.3.0.223
% Date:               Oct 22 2018, 15:43
% Dimension:          1
% Nodes:              225
% Expressions:        1
% Description:        Line graph
% x                       Height
0                         626.4824584397828
2.1191841480136804E-4     626.393900215472
4.2353438892247565E-4     626.2664703345946
6.349689892252786E-4      626.1001687971504
8.463435942227858E-4      625.8949956031398
0.001057779685752053      625.6509507525628
0.001269398639759412      625.3680342454189
0.001481321517995422      625.0462460817087
0.0017252358262731596     624.6170970509559
0.0019686866163640313     624.1571338403226
0.0022118589563155885     623.6663564498086
0.002454938550168189      623.1447648794142
0.0026981113144448556     622.5923591291395
0.0029415629522145732     622.0091391989839
0.0031854785295931678     621.395105088948
0.0034450106912723537     620.638157496599
0.0037039863009040125     619.8497927462298
0.003962627412610827      619.0300108378402
0.0042211569424298        618.1788117714306
0.004479798094906585      617.2961955470008
0.004738773785972872      616.3821621645503
0.004998306069542035      615.4367116240799
0.005274868491808245      614.3304472110993
0.005550758931995686      613.2072330024877
0.0058262454501036105     612.0670689982443
0.006101597285810183      610.9099551983695
0.006377084073678616      609.7358916028637
0.006652975052596927      608.5448782117261
0.006929538280995558      607.3369150249572
0.007206101510950518      606.0856800913778
0.007481992491406557      604.8520905188825
0.007757479280801014      603.6361463074711
0.00803283111802884       602.4378474571438
0.008308317637660222      601.257193967901
0.008584208079380276      600.0941858397417
0.008860770503195153      598.9488230726668
0.009120302815147717      597.8738359634362
0.00937927853441616       596.8402487310334
0.009637919714987194      595.8480613754581
0.009896449272866283      594.8972738967104
0.010155090412673047      593.9878862947905
0.010414066050518256      593.119898569698
0.01067359824059789       592.2933107214333
0.010917512776055054      591.5404794776692
0.011160965100129169      590.8389438167312
0.011404139717480647      590.188703738619
0.01164722176512739       589.5897592433328
0.011890396591516505      589.0421103308727
0.012133849333188814      588.5457570012383
0.012377764493855997      588.1006992544299
0.01258968694000722       587.7562925548775
0.012801305803204788      587.4527534904621
0.013012742322906452      587.1900820611831
0.013224118052332232      586.968278267041
0.01343555464954572       586.7873421080359
0.013647173667633327      586.6472735841671
0.013859096345786744      586.5480726954353
0.014071014760598048      586.5059369554156
0.014282630734729056      586.5038498289439
0.01449406533504172       586.54181131602
0.014705439940049088      586.6198214166441
0.014916876031588231      586.7378801308164
0.015128494985605482      586.8959874585363
0.015340417863851432      587.0941433998044
0.01558433217214941       587.3406082184175
0.015827782962260412      587.6457274540618
0.016070955302232025      588.0095011067373
0.016314034896104664      588.4319291764441
0.0165572076604014        588.9130116631824
0.01680065929819124       589.4527485669516
0.01704457487559009       590.0511398877524
0.01730410703726679       590.7040864545003
0.017563082646895985      591.3973605166321
0.01782172375860034       592.130962074148
0.018080253288416847      592.904891127048
0.01833889444089119       593.7191476753322
0.018597870131955005      594.5737317190003
0.018857402415521692      595.4686432580526
0.019133964837753384      596.4295452739307
0.019409855277906563      597.408980572842
0.019685341795980367      598.4069491547864
0.019960693631652874      599.423451019764
0.0202361804194872        600.4584861677752
0.020512071398371242      601.5120545988192
0.020788634626735362      602.5841563128967
0.02106519785666259       603.6325812669594
0.021341088837091095      604.669269284183
0.021616575626458134      605.6942203645675
0.02189192746365859       606.7074345081128
0.022167413983262562      607.7089117148192
0.02244330442495508       608.6986519846863
0.022719866848742224      609.6766553177143
0.022979399160698737      610.4973595499926
0.023238374879971102      611.2960821079707
0.023497016060546046      612.0728229916489
0.023755545618429033      612.8275822010271
0.02401418675823971       613.5603597361054
0.024273162396088833      614.2711555968834
0.024532694586172417      614.9599697833615
0.02477660912165014       615.5310630921008
0.02502006144574469       616.0689846451666
0.025263236063116538      616.5737344425585
0.025506318110783622      617.0453124842771
0.025749492937193107      617.4837187703225
0.02599294567888585       617.8889533006939
0.026236860839573585      618.261016075392
0.026448783285734738      618.5301161106296
0.02666040214894219       618.7812632201602
0.026871838668653707      619.0144574039837
0.027083214398089334      619.2296986621
0.027294650995312687      619.4269869945093
0.027506270013410168      619.6063224012113
0.02771819269157351       619.7677048822063
0.02793011110637494       619.8390014289768
0.028141727080496122      619.8911031484392
0.028353161680798985      619.9240100405935
0.028564536285796558      619.9377221054398
0.028775972377325904      619.9322393429784
0.028987591331333325      619.9075617532085
0.029199514209569403      619.8636893361308
0.02944342851784522       619.6842742437591
0.02968687930793418       619.4627091661873
0.02993005164788383       619.1989941034152
0.030173131241734534      618.8931290554427
0.0304163040060093        618.5451140222704
0.0306597556437771        618.1549490038974
0.030903671221153783      617.7226340003244
0.031163203382828072      617.105306939432
0.03142217899245488       616.4432561571873
0.03168082010415685       615.7364816535899
0.03193934963397098       614.9849834286401
0.032197990786442934      614.1887614823382
0.03245696647750436       613.3478158146835
0.032716498761068635      612.4621464256765
0.03299306118333142       611.3469525428662
0.03326895162351545       610.2108311006132
0.03354443814161999       609.0537820989166
0.03381978997732317       607.8758055377772
0.034095276765188226      606.6769014171948
0.03437116774410313       605.4570697371688
0.03464773097249833       604.2163104977001
0.034924294202460265      602.90674072808
0.03520018518292322       601.6171211427226
0.03547567197232456       600.3474517416279
0.035751023809559274      599.0977325247958
0.036026510329197556      597.8679634922265
0.036302400770924524      596.6581446439196
0.03657896319474637       595.4682759798756
0.036838495506703706      594.3502545151975
0.03709747122597688       593.2845293107414
0.037356112406552636      592.2711003665071
0.03761464196443644       591.3099676824946
0.03787328310424792       590.4011312587046
0.03813225874209787       589.544591095136
0.03839179093218227       588.7403471917895
0.03863570546763781       588.0122466169538
0.038879157791710306      587.3477698992552
0.03912233240906017       586.7469170386937
0.03936541445670531       586.2096880352693
0.039608589283092806      585.7360828889822
0.039852042024763494      585.326101599832
0.04009595718542905       584.979744167819
0.040307879631580334      584.713691497149
0.04051949849477797       584.4983819918225
0.0407309350144797        584.3338156518396
0.040942310743905544      584.2199924772003
0.04115374734111909       584.1569124679049
0.04136536635920676       584.1445756239528
0.04157728903736024       584.1829819453446
0.04178920745215007       584.278302316591
0.042000823426259694      584.4228640658234
0.042212258026551035      584.6166671930421
0.04242363263153709       584.859711698247
0.0426350687230549        585.1519975814385
0.042846687677050764      585.4935248426159
0.04305861055527523       585.8842934817797
0.04330252486354604       586.360507588257
0.043545975653630026      586.90373944278
0.04378914799357473       587.5139890453485
0.044032227587420474      588.1912563959628
0.04427540035169028       588.9355414946228
0.04451885198945311       589.7468443413284
0.044762767566824783      590.6251649360796
0.045022299728516735      591.5891556124084
0.04528127533816108       592.5992215985616
0.045539916449880535      593.6553628945394
0.045798445979712124      594.7575795003415
0.046057087132201545      595.9058714159685
0.04631606282328052       597.1002386414198
0.046575595106862454      598.3406811766956
0.04685215752913061       599.6633254633223
0.04712804796931999       601.0088382728699
0.04740353448742985       602.3772196053383
0.04767888632313835       603.7684694607277
0.04795437311100872       605.1825878390383
0.048230264089928976      606.6195747402695
0.048506827318329566      608.0794301644219
0.04878339054829114       609.4678358761078
0.049059281528753745      610.8359708390708
0.04933476831815475       612.183835053311
0.0496101201553891        613.5114285188281
0.04988560667502701       614.8187512356228
0.05016149711675364       616.1058032036942
0.050438059540575134      617.372584423043
0.05069759185254397       618.3932570194086
0.05095656757182859       619.3680465640128
0.05121520875241573       620.296953056855
0.05147373831031092       621.1799764979357
0.051732379450133786      622.0171168872552
0.05199135508799517       622.8083742248124
0.05225088727809108       623.5537485106082
0.0524948018135407        624.1357956800051
0.052738254137607306      624.6596369901235
0.05298142875495131       625.1252724409633
0.05322451080259058       625.5327020325246
0.0534676856289722        625.8819257648076
0.05371113837063701       626.172943637812
0.05395505353129665       626.405755651538
0.05416697597743634       626.5406722635172
0.054378594840622414      626.6342691852293
0.05459003136031263       626.6865464166741
0.05480140708972696       626.697503957852
0.05501284368692898       626.6671418087628
0.0552244627050051        626.5954599694063
0.05543638538314697       626.4824584397828
