% Model:              brazing.mph
% Version:            COMSOL 5.3.0.223
% Date:               Oct 22 2018, 15:03
% Dimension:          1
% Nodes:              161
% Expressions:        1
% Description:        Line graph
% x                       Height
0                         631.6207535861379
1.9693985890610136E-4     631.5896892524247
3.9298030043864816E-4     631.5692250731581
5.884188308682271E-4      631.5593610483378
7.835557095112735E-4      631.5600971779638
9.786925881542028E-4      631.5714334620362
0.0011741311185834375     631.5933699005552
0.0013701715601154056     631.6259064935206
0.0015671114190207022     631.6690432409323
0.0017642608961497635     631.4318029894469
0.0019605081241513326     631.1911309299501
0.0021561515411346144     630.9470270624417
0.002351492352702621      630.6994913869221
0.0025468331642698894     630.448523903391
0.0027424765812509564     630.1941246118483
0.0029387238092488436     629.9362935122942
0.0031358732863727766     629.6750306047287
0.0033326885608882563     629.3087308750903
0.0035286060983021257     628.9476928950829
0.0037239228519497995     628.5919166647067
0.003918938519653848      628.2414021839613
0.004113954187357973      627.896149452847
0.004309270941005876      627.5561584713638
0.004505188478420127      627.2214292395116
0.004702003752936137      626.8919617572905
0.004899138702461749      626.5462680846673
0.005095371599302965      626.2173316170756
0.005291000816927052      625.9051523545154
0.005486327495291825      625.6097302969865
0.005681654173656831      625.3310654444891
0.0058772833912816074     625.0691577970232
0.0060735162881239745     624.8240073545886
0.006270651237651189      624.5956141171854
0.006467582778148322      624.4186482226374
0.006663615013526554      624.2744938436468
0.006859045413116663      624.1631509802135
0.0070541741987231454     624.0846196323375
0.007249302984329781      624.038899800019
0.007444733383920351      624.0259914832577
0.007640765619299351      624.0458946820539
0.007837697159797551      624.0986093964075
0.008034634474091872      624.0956385098372
0.008230672405352359      624.1294302426439
0.008426108448549354      624.1999845948277
0.008621242851524007      624.3073015663886
0.008816377254498534      624.4513811573264
0.009011813297695145      624.6322233676412
0.009207851228955002      624.8498281973331
0.00940478854324844       625.104195646402
0.00960192671152544       625.4148460452127
0.00979816278359587       625.7407308795845
0.009993795147248338      626.0818501495173
0.010189124956984269      626.4382038550114
0.010384454766719743      626.8097919960665
0.010580087130370853      627.1966145726827
0.010776323202439026      627.59867158486
0.01097346137071288       628.0159630325984
0.011170281912174305      628.3865925191998
0.011366204645540166      628.7672787364344
0.011561526547508357      629.1580216843025
0.011756547339625332      629.558821362804
0.011951568131742307      629.9696777719388
0.0121468900337105        630.3905909117071
0.012342812767076368      630.8215607821088
0.0125396333085378        631.2625873831439
0.012736771215691979      631.5469644131641
0.012933007030171178      631.8302023751504
0.013128639138602195      632.1123012691027
0.013323968694306592      632.3932610950206
0.013519298250011432      632.6730818529046
0.013714930358443784      632.9517635427546
0.0139111661729252        633.2293061645704
0.014108304080082462      633.5057097183523
0.014305241249097643      633.4996260997195
0.014501279037039759      633.4966491251151
0.014696714938233999      633.4967787945394
0.014891849199866372      633.5000151079921
0.015086983461498874      633.5063580654734
0.015282419362693495      633.515807666983
0.01547845715063625       633.5283639125214
0.015675394319652317      633.5440268020882
0.015872325504405583      633.1745312462014
0.01606835738884011       632.8098793526013
0.016263787440706973      632.4500711212885
0.016458915880206496      632.0951065522626
0.016654044319705866      631.7449856455237
0.016849474371572262      631.399708401072
0.017045506256006017      631.0592748189073
0.017242437440758204      630.7236848990295
0.01743957168037589       630.1646391071357
0.017635803876907424      629.5963611882995
0.01783143240066149       629.0188511425209
0.018026758388388308      628.4321089698001
0.01822208437611492       627.8361346701369
0.01841771289986836       627.2309282435313
0.018613945096398854      626.6164896899833
0.018811079336015085      625.9928190094929
0.019007894687321662      625.3307103556075
0.01920381230049143       624.6710891690329
0.019399129129200405      624.0139554497695
0.01959414487161704       623.3593091978169
0.01978916061403359       622.7071504131753
0.01998447744274231       622.0574790958447
0.020180395055911654      621.4102952458251
0.020377210407217645      620.7655988631163
0.020574360469106157      620.1832756757215
0.020770608273960874      619.6220503944646
0.020966252262493188      619.0819230193459
0.021161593642948652      618.5628935503653
0.021356935023404883      618.0649619875227
0.021552579011939476      617.5881283308183
0.021748826816797996      617.1323925802519
0.021945976878691802      616.6977547358237
0.022142917141692885      616.3638186516616
0.022338957981867254      616.0733052655686
0.022534396907280062      615.8262145775439
0.02272953417907009       615.6225465875881
0.02292467145086023       615.462301295701
0.02312011037627338       615.3454787018825
0.02331615121644832       615.2720788061328
0.023513091479450195      615.2421016084518
0.023710025135207962      615.1751140246312
0.02390605945730262       615.1566809794082
0.024101491924457957      615.1868024727827
0.024296622768016963      615.2654785047549
0.024491753611575823      615.3927090753247
0.02468718607873073       615.568494184492
0.024883220400824673      615.7928338322569
0.025080154056581445      616.0657280186193
0.025277299572591536      616.4457560069701
0.025473542893039384      616.8473630256024
0.02566918243840792       617.270549074516
0.025864519396400307      617.7153141537111
0.026059856354392216      618.1816582631877
0.026255495899759323      618.6695814029457
0.026451739220204794      619.1790835729852
0.026648884736211575      619.7101647733061
0.02684569473774919       620.2883322426161
0.027041607073256636      620.8722686955892
0.027236918672681274      621.4619741322255
0.027431929210095855      622.0574485525246
0.027626939747510428      622.658691956487
0.027822251346935042      623.2657043441125
0.028018163682442445      623.8784857154011
0.028214973683980002      624.4970360703527
0.028412120943583204      625.0853530935221
0.028608365984047285      625.6629030360649
0.02880400723361381       626.2296858979812
0.02899934588786498       626.7857016792708
0.02919468454211669       627.3309503799338
0.029390325791684838      627.8654319999703
0.02958657083215161       628.38914653938
0.029783718091758563      628.9020939981633
0.029980652759780888      629.2421234478732
0.030176688080480362      629.5820966115219
0.030372121537075924      629.9220134891101
0.03056725336547531       630.2618740806373
0.030762385193874833      630.6016783861038
0.030957818650470807      630.9414264055093
0.031153853971170976      631.281118138854
0.031350788639194264      631.6207535861379
