% Model:              brazing.mph
% Version:            COMSOL 5.3.0.223
% Date:               Oct 22 2018, 15:14
% Dimension:          1
% Nodes:              161
% Expressions:        1
% Description:        Line graph
% x                       Height
0                         637.8920581087831
1.9693985890610136E-4     637.8611701941323
3.9298030043864816E-4     637.8407005557152
5.884188308682271E-4      637.8306491935313
7.835557095112735E-4      637.831016107581
9.786925881542028E-4      637.8418012978643
0.0011741311185834375     637.8630047643811
0.0013701715601154056     637.8946265071313
0.0015671114190207022     637.9366665261151
0.0017642608961497635     637.6986050989174
0.0019605081241513326     637.4571785751658
0.0021561515411346144     637.2123869548603
0.002351492352702621      636.964230238001
0.0025468331642698894     636.712708424588
0.0027424765812509564     636.4578215146211
0.0029387238092488436     636.1995695081002
0.0031358732863727766     635.9379524050256
0.0033326885608882563     635.5705605090799
0.0035286060983021257     635.2085554537283
0.0037239228519497995     634.8519372389709
0.003918938519653848      634.5007058648077
0.004113954187357973      634.1548613312387
0.004309270941005876      633.8144036382638
0.004505188478420127      633.479332785883
0.004702003752936137      633.1496487740965
0.004899138702461749      632.8029553644784
0.005095371599302965      632.4731456066488
0.005291000816927052      632.1602195006078
0.005486327495291825      631.8641770463553
0.005681654173656831      631.5850182438912
0.0058772833912816074     631.3227430932156
0.0060735162881239745     631.0773515943285
0.006270651237651189      630.8488437472299
0.006467582778148322      630.6709753139844
0.006663615013526554      630.5259842060377
0.006859045413116663      630.41387042339
0.0070541741987231454     630.3346339660411
0.007249302984329781      630.2882748339911
0.007444733383920351      630.2747930272401
0.007640765619299351      630.2941885457878
0.007837697159797551      630.3464613896346
0.008034634474091872      630.3435257501238
0.008230672405352359      630.3773814458233
0.008426108448549354      630.4480284767332
0.008621242851524007      630.5554668428531
0.008816377254498534      630.6996965441834
0.009011813297695145      630.880717580724
0.009207851228955002      631.0985299524748
0.00940478854324844       631.3531336594359
0.00960192671152544       631.6632142595967
0.00979816278359587       631.9886726218
0.009993795147248338      632.3295087460455
0.010189124956984269      632.6857226323335
0.010384454766719743      633.057314280664
0.010580087130370853      633.444283691037
0.010776323202439026      633.8466308634523
0.01097346137071288       634.2643557979101
0.011170281912174305      634.6348665551329
0.011366204645540166      635.0155414248927
0.011561526547508357      635.4063804071893
0.011756547339625332      635.8073835020227
0.011951568131742307      636.2185507093931
0.0121468900337105        636.6398820293001
0.012342812767076368      637.071377461744
0.0125396333085378        637.5130370067247
0.012736771215691979      637.7974346529714
0.012933007030171178      638.0808086792637
0.013128639138602195      638.3631590856015
0.013323968694306592      638.6444858719849
0.013519298250011432      638.9247890384139
0.013714930358443784      639.2040685848884
0.0139111661729252        639.4823245114085
0.014108304080082462      639.7595568179742
0.014305241249097643      639.754075707586
0.014501279037039759      639.7516219578164
0.014696714938233999      639.7521955686653
0.014891849199866372      639.7557965401328
0.015086983461498874      639.7624248722187
0.015282419362693495      639.7720805649233
0.01547845715063625       639.7847636182463
0.015675394319652317      639.8004740321878
0.015872325504405583      639.4322573720416
0.01606835738884011       639.0687494141742
0.016263787440706973      638.7099501585859
0.016458915880206496      638.3558596052766
0.016654044319705866      638.0064777542462
0.016849474371572262      637.661804605495
0.017045506256006017      637.3218401590227
0.017242437440758204      636.9865844148294
0.01743957168037589       636.4281439990295
0.017635803876907424      635.860526568741
0.01783143240066149       635.2837321239637
0.018026758388388308      634.6977606646977
0.01822208437611492       634.102612190943
0.01841771289986836       633.4982867026996
0.018613945096398854      632.8847841999674
0.018811079336015085      632.2621046827466
0.019007894687321662      631.6003207466315
0.01920381230049143       630.941121959797
0.019399129129200405      630.2845083222433
0.01959414487161704       629.6304798339703
0.01978916061403359       628.979036494978
0.01998447744274231       628.3301783052665
0.020180395055911654      627.6839052648357
0.020377210407217645      627.0402173736857
0.020574360469106157      626.4581038506608
0.020770608273960874      625.8971834979761
0.020966252262493188      625.3574563156319
0.021161593642948652      624.838922303628
0.021356935023404883      624.3415814619644
0.021552579011939476      623.8654337906412
0.021748826816797996      623.4104792896583
0.021945976878691802      622.9767179590156
0.022142917141692885      622.6428057694516
0.022338957981867254      622.3523350517429
0.022534396907280062      622.1053058058898
0.02272953417907009       621.901718031892
0.02292467145086023       621.7415717297496
0.02312011037627338       621.6248668994627
0.02331615121644832       621.5516035410312
0.023513091479450195      621.5217816544551
0.023710025135207962      621.4554305252764
0.02390605945730262       621.4376092116192
0.024101491924457957      621.4683177134838
0.024296622768016963      621.5475560308698
0.024491753611575823      621.6753241637776
0.02468718607873073       621.851622112207
0.024883220400824673      622.076449876158
0.025080154056581445      622.3498074556306
0.025277299572591536      622.7294193581215
0.025473542893039384      623.1307013964599
0.02566918243840792       623.553653570646
0.025864519396400307      623.9982758806797
0.026059856354392216      624.464568326561
0.026255495899759323      624.95253090829
0.026451739220204794      625.4621636258667
0.026648884736211575      625.9934664792909
0.02684569473774919       626.5712199003195
0.027041607073256636      627.1547989198767
0.027236918672681274      627.7442035379624
0.027431929210095855      628.3394337545767
0.027626939747510428      628.9404895697195
0.027822251346935042      629.5473709833908
0.028018163682442445      630.1600779955908
0.028214973683980002      630.7786106063191
0.028412120943583204      631.3662386203121
0.028608365984047285      631.9431752904353
0.02880400723361381       632.5094206166887
0.02899934588786498       633.0649745990723
0.02919468454211669       633.6098372375862
0.029390325791684838      634.1440085322305
0.02958657083215161       634.6674884830048
0.029783718091758563      635.1802770899095
0.029980652759780888      635.5198899137464
0.030176688080480362      635.8593198243041
0.030372121537075924      636.1985668215822
0.03056725336547531       636.5376309055811
0.030762385193874833      636.8765120763006
0.030957818650470807      637.2152103337409
0.031153853971170976      637.5537256779016
0.031350788639194264      637.8920581087831
