% Model:              brazing.mph
% Version:            COMSOL 5.3.0.223
% Date:               Oct 22 2018, 15:55
% Dimension:          1
% Nodes:              225
% Expressions:        1
% Description:        Line graph
% x                       Height
0                         612.6207853960076
2.1191841480136804E-4     612.5396533485984
4.2353438892247565E-4     612.4253951304081
6.349689892252786E-4      612.2780107414364
8.463435942227858E-4      612.0975001816836
0.001057779685752053      611.8838634511496
0.001269398639759412      611.637100549834
0.001481321517995422      611.3572114777375
0.0017252358262731596     610.983832222699
0.0019686866163640313     610.5855476198861
0.0022118589563155885     610.1623576692988
0.002454938550168189      609.714262370937
0.0026981113144448556     609.2412617248012
0.0029415629522145732     608.7433557308906
0.0031854785295931678     608.2205443892057
0.0034450106912723537     607.5660535468222
0.0037039863009040125     606.8859155156756
0.003962627412610827      606.1801302957657
0.0042211569424298        605.4486978870927
0.004479798094906585      604.6916182896567
0.004738773785972872      603.9088915034573
0.004998306069542035      603.100517528495
0.005274868491808245      602.1388388513859
0.005550758931995686      601.1634114944636
0.0058262454501036105     600.1742354577283
0.006101597285810183      599.1713107411799
0.006377084073678616      598.1546373448186
0.006652975052596927      597.1242152686442
0.006929538280995558      596.0800445126567
0.007206101510950518      594.9862466933515
0.007481992491406557      593.9087812484063
0.007757479280801014      592.847648177821
0.00803283111802884       591.8028474815958
0.008308317637660222      590.7743791597309
0.008584208079380276      589.7622432122256
0.008860770503195153      588.7664396390807
0.009120302815147717      587.8254859742976
0.00937927853441616       586.9212908499015
0.009637919714987194      586.0538542658924
0.009896449272866283      585.2231762222704
0.010155090412673047      584.4292567190356
0.010414066050518256      583.6720957561874
0.01067359824059789       582.9516933337264
0.010917512776055054      582.2931201591758
0.011160965100129169      581.6791637600218
0.011404139717480647      581.109824136264
0.01164722176512739       580.5851012879028
0.011890396591516505      580.1049952149384
0.012133849333188814      579.6695059173701
0.012377764493855997      579.2786333951984
0.01258968694000722       578.9757083244532
0.012801305803204788      578.7084047628892
0.013012742322906452      578.4767227105064
0.013224118052332232      578.2806621673047
0.01343555464954572       578.1202231332846
0.013647173667633327      577.9954056084456
0.013859096345786744      577.9062095927878
0.014071014760598048      577.866077154301
0.014282630734729056      577.8608579600817
0.01449406533504172       577.8905520101297
0.014705439940049088      577.9551593044449
0.014916876031588231      578.0546798430277
0.015128494985605482      578.1891136258774
0.015340417863851432      578.3584606529947
0.01558433217214941       578.5693787266263
0.015827782962260412      578.8313681248682
0.016070955302232025      579.1444288477204
0.016314034896104664      579.5085608951832
0.0165572076604014        579.9237642672566
0.01680065929819124       580.3900389639401
0.01704457487559009       580.9073849852342
0.01730410703726679       581.4689682595874
0.017563082646895985      582.0666606612551
0.01782172375860034       582.7004621902373
0.018080253288416847      583.3703728465339
0.01833889444089119       584.0763926301452
0.018597870131955005      584.8185215410706
0.018857402415521692      585.5967595793107
0.019133964837753384      586.4226685092389
0.019409855277906563      587.2660845328554
0.019685341795980367      588.1270076501602
0.019960693631652874      589.0054378611533
0.0202361804194872        589.901375165835
0.020512071398371242      590.8148195642048
0.020788634626735362      591.745771056263
0.02106519785666259       592.6434427333592
0.021341088837091095      593.5324362659087
0.021616575626458134      594.4127516539119
0.02189192746365859       595.2843888973686
0.022167413983262562      596.1473479962791
0.02244330442495508       597.001628950643
0.022719866848742224      597.8472317604605
0.022979399160698737      598.5398043246778
0.023238374879971102      599.2164426456272
0.023497016060546046      599.8771467233087
0.023755545618429033      600.5219165577222
0.02401418675823971       601.150752148868
0.024273162396088833      601.7636534967456
0.024532694586172417      602.3606206013555
0.02477660912165014       602.8435910472996
0.02502006144574469       603.2990352916888
0.025263236063116538      603.7269533345229
0.025506318110783622      604.1273451758021
0.025749492937193107      604.5002108155267
0.02599294567888585       604.8455502536958
0.026236860839573585      605.1633634903103
0.026448783285734738      605.3885954406492
0.02666040214894219       605.6014158229415
0.026871838668653707      605.8018246371872
0.027083214398089334      605.9898218833863
0.027294650995312687      606.165407561539
0.027506270013410168      606.328581671645
0.02771819269157351       606.4793442137045
0.02793011110637494       606.5423986237622
0.028141727080496122      606.592005466828
0.028353161680798985      606.628164742902
0.028564536285796558      606.650876451984
0.028775972377325904      606.6601405940745
0.028987591331333325      606.6559571691728
0.029199514209569403      606.6383261772795
0.02944342851784522       606.5005407820305
0.02968687930793418       606.3259147668288
0.02993005164788383       606.1144481316741
0.030173131241734534      605.8661408765665
0.0304163040060093        605.5809930015065
0.0306597556437771        605.2590045064934
0.030903671221153783      604.9001753915276
0.031163203382828072      604.3701796768678
0.03142217899245488       603.8023031757098
0.03168082010415685       603.1965458880535
0.03193934963397098       602.5529078138989
0.032197990786442934      601.8713889532461
0.03245696647750436       601.1519893060948
0.032716498761068635      600.3947088724453
0.03299306118333142       599.4195441611432
0.03326895162351545       598.4279833954694
0.03354443814161999       597.4200265754235
0.03381978997732317       596.3956737010061
0.034095276765188226      595.3549247722169
0.03437116774410313       594.2977797890558
0.03464773097249833       593.2242387515229
0.034924294202460265      592.0702290002685
0.03520018518292322       590.9363974096085
0.03547567197232456       589.8227439795427
0.035751023809559274      588.7292687100714
0.036026510329197556      587.6559716011948
0.036302400770924524      586.6028526529121
0.03657896319474637       585.5699118652241
0.036838495506703706      584.5889736966734
0.03709747122597688       583.6553563547837
0.037356112406552636      582.7690598395546
0.03761464196443644       581.9300841509868
0.03787328310424792       581.1384292890799
0.03813225874209787       580.3940952538335
0.03839179093218227       579.6970820452483
0.03863570546763781       579.0631851908431
0.038879157791710306      578.4851292532771
0.03912233240906017       577.9629142325498
0.03936541445670531       577.4965401286613
0.039608589283092806      577.0860069416118
0.039852042024763494      576.7313146714009
0.04009595718542905       576.4324633180291
0.040307879631580334      576.2031322937211
0.04051949849477797       576.0181473791594
0.0407309350144797        575.8775085743437
0.040942310743905544      575.7812158792743
0.04115374734111909       575.7292692939513
0.04136536635920676       575.7216688183744
0.04157728903736024       575.7584144525439
0.04178920745215007       575.8445747559604
0.042000823426259694      575.9737746523849
0.042212258026551035      576.1460141418174
0.04242363263153709       576.361293224258
0.0426350687230549        576.6196118997068
0.042846687677050764      576.9209701681633
0.04305861055527523       577.265368029628
0.04330252486354604       577.6841654945756
0.043545975653630026      578.1617466571049
0.04378914799357473       578.6981115172157
0.044032227587420474      579.2932600749082
0.04427540035169028       579.9471923301827
0.04451885198945311       580.6599082830384
0.044762767566824783      581.431407933476
0.045022299728516735      582.2752395574493
0.04528127533816108       583.1604318094533
0.045539916449880535      584.0869846894881
0.045798445979712124      585.0548981975535
0.046057087132201545      586.0641723336499
0.04631606282328052       587.1148070977769
0.046575595106862454      588.2068024899347
0.04685215752913061       589.3609374746223
0.04712804796931999       590.5371747046147
0.04740353448742985       591.7355141799117
0.04767888632313835       592.9559559005133
0.04795437311100872       594.1984998664199
0.048230264089928976      595.4631460776307
0.048506827318329566      596.7498945341464
0.04878339054829114       597.9600695437716
0.049059281528753745      599.1540219439888
0.04933476831815475       600.3317517347979
0.0496101201553891        601.4932589161989
0.04988560667502701       602.6385434881921
0.05016149711675364       603.767605450777
0.050438059540575134      604.8804448039538
0.05069759185254397       605.7614594778626
0.05095656757182859       606.6031429516175
0.05121520875241573       607.4054952252186
0.05147373831031092       608.1685162986657
0.051732379450133786      608.8922061719594
0.05199135508799517       609.5765648450988
0.05225088727809108       610.2215923180846
0.0524948018135407        610.7176265200264
0.052738254137607306      611.1626510675723
0.05298142875495131       611.556665960722
0.05322451080259058       611.8996711994757
0.0534676856289722        612.1916667838336
0.05371113837063701       612.4326527137952
0.05395505353129665       612.6226289893608
0.05416697597743634       612.7271955563074
0.054378594840622414      612.7968188107789
0.05459003136031263       612.8314987527749
0.05480140708972696       612.8312353822959
0.05501284368692898       612.7960286993418
0.0552244627050051        612.7258787039123
0.05543638538314697       612.6207853960076
