% Model:              brazing.mph
% Version:            COMSOL 5.3.0.223
% Date:               Oct 22 2018, 15:24
% Dimension:          1
% Nodes:              161
% Expressions:        1
% Description:        Line graph
% x                       Height
0                         634.8949567884866
1.9693985890610136E-4     634.8639512166537
3.9298030043864816E-4     634.8434426617235
5.884188308682271E-4      634.8334311236963
7.835557095112735E-4      634.8339166025718
9.786925881542028E-4      634.8448990983501
0.0011741311185834375     634.8663786110312
0.0013701715601154056     634.8983551406153
0.0015671114190207022     634.9408286871021
0.0017642608961497635     634.7030773100727
0.0019605081241513326     634.4619295262412
0.0021561515411346144     634.2173853356081
0.002351492352702621      633.969444738173
0.0025468331642698894     633.7181077339362
0.0027424765812509564     633.4633743228976
0.0029387238092488436     633.2052445050572
0.0031358732863727766     632.9437182804148
0.0033326885608882563     632.5767468241156
0.0035286060983021257     632.2151055687755
0.0037239228519497995     631.858794514394
0.003918938519653848      631.5078136609716
0.004113954187357973      631.162163008508
0.004309270941005876      630.8218425570035
0.004505188478420127      630.4868523064576
0.004702003752936137      630.1571922568709
0.004899138702461749      629.8108738557265
0.005095371599302965      629.4813826672518
0.005291000816927052      629.1687186914465
0.005486327495291825      628.872881928311
0.005681654173656831      628.5938723778451
0.0058772833912816074     628.3316900400488
0.0060735162881239745     628.0863349149221
0.006270651237651189      627.8578070024649
0.006467582778148322      627.6802724216344
0.006663615013526554      627.5355870929567
0.006859045413116663      627.4237510164315
0.0070541741987231454     627.3447641920592
0.007249302984329781      627.2986266198395
0.007444733383920351      627.2853382997724
0.007640765619299351      627.3048992318581
0.007837697159797551      627.3573094160965
0.008034634474091872      627.3542966752839
0.008230672405352359      627.3880642028065
0.008426108448549354      627.4586119986644
0.008621242851524007      627.5659400628575
0.008816377254498534      627.7100483953858
0.009011813297695145      627.8909369962495
0.009207851228955002      628.1086058654481
0.00940478854324844       628.3630550029822
0.00960192671152544       628.6733465867585
0.00979816278359587       628.998953874025
0.009993795147248338      629.3398768647818
0.010189124956984269      629.6961155590287
0.010384454766719743      630.0676699567658
0.010580087130370853      630.4545400579932
0.010776323202439026      630.8567258627107
0.01097346137071288       631.2742273709184
0.011170281912174305      631.6447663278273
0.011366204645540166      632.0254238122099
0.011561526547508357      632.4161998240666
0.011756547339625332      632.8170943633972
0.011951568131742307      633.2281074302018
0.0121468900337105        633.6492390244804
0.012342812767076368      634.0804891462329
0.0125396333085378        634.5218577954594
0.012736771215691979      634.8062436767394
0.012933007030171178      635.089556778237
0.013128639138602195      635.3717970999522
0.013323968694306592      635.6529646418848
0.013519298250011432      635.9330594040349
0.013714930358443784      636.2120813864025
0.0139111661729252        636.4900305889876
0.014108304080082462      636.7669070117902
0.014305241249097643      636.7611746444263
0.014501279037039759      636.7585081948016
0.014696714938233999      636.7589076629158
0.014891849199866372      636.7623730487691
0.015086983461498874      636.7689043523612
0.015282419362693495      636.7785015736924
0.01547845715063625       636.7911647127627
0.015675394319652317      636.806893769572
0.015872325504405583      636.4381411651538
0.01606835738884011       636.07416068413
0.016263787440706973      635.7149523265007
0.016458915880206496      635.3605160922657
0.016654044319705866      635.0108519814252
0.016849474371572262      634.665959993979
0.017045506256006017      634.3258401299272
0.017242437440758204      633.9904923892699
0.01743957168037589       633.4318380132432
0.017635803876907424      632.8639833810915
0.01783143240066149       632.2869284928146
0.018026758388388308      631.7006733484125
0.01822208437611492       631.1052179478852
0.01841771289986836       630.5005622912329
0.018613945096398854      629.8867063784553
0.018811079336015085      629.2636502095527
0.019007894687321662      628.6017902743846
0.01920381230049143       627.942472285436
0.019399129129200405      627.2856962427064
0.01959414487161704       626.631462146196
0.01978916061403359       625.9797699959048
0.01998447744274231       625.3306197918326
0.020180395055911654      624.6840115339797
0.020377210407217645      624.0399452223461
0.020574360469106157      623.4578119675666
0.020770608273960874      622.89682892287
0.020966252262493188      622.3569960882564
0.021161593642948652      621.8383134637256
0.021356935023404883      621.3407810492779
0.021552579011939476      620.8643988449129
0.021748826816797996      620.409166850631
0.021945976878691802      619.975085066432
0.022142917141692885      619.6412339190374
0.022338957981867254      619.3508144949932
0.022534396907280062      619.1038267942995
0.02272953417907009       618.9002708169562
0.02292467145086023       618.7401465629633
0.02312011037627338       618.6234540323209
0.02331615121644832       618.5501932250288
0.023513091479450195      618.5203641410873
0.023710025135207962      618.4537901230883
0.02390605945730262       618.4357550929533
0.024101491924457957      618.4662590506822
0.024296622768016963      618.5453019962749
0.024491753611575823      618.6728839297316
0.02468718607873073       618.849004851052
0.024883220400824673      619.0736647602364
0.025080154056581445      619.3468636572845
0.025277299572591536      619.7267074672767
0.025473542893039384      620.1281782161833
0.02566918243840792       620.551275904004
0.025864519396400307      620.996000530739
0.026059856354392216      621.4623520963884
0.026255495899759323      621.9503306009518
0.026451739220204794      622.4599360444297
0.026648884736211575      622.9911684268217
0.02684569473774919       623.569132336314
0.027041607073256636      624.1528937918245
0.027236918672681274      624.7424527933526
0.027431929210095855      625.337809340899
0.027626939747510428      625.9389634344632
0.027822251346935042      626.5459150740454
0.028018163682442445      627.1586642596454
0.028214973683980002      627.7772109912636
0.028412120943583204      628.3651496875322
0.028608365984047285      628.9423603880213
0.02880400723361381       629.5088430927315
0.02899934588786498       630.0645978016622
0.02919468454211669       630.6096245148138
0.029390325791684838      631.143923232186
0.02958657083215161       631.6674939537792
0.029783718091758563      632.1803366795931
0.029980652759780888      632.5201160837925
0.030176688080480362      632.8597663763952
0.030372121537075924      633.1992875574017
0.03056725336547531       633.5386796268116
0.030762385193874833      633.8779425846251
0.030957818650470807      634.217076430842
0.031153853971170976      634.5560811654626
0.031350788639194264      634.8949567884866
