% Model:              brazing.mph
% Version:            COMSOL 5.3.0.223
% Date:               Oct 22 2018, 15:29
% Dimension:          1
% Nodes:              225
% Expressions:        1
% Description:        Line graph
% x                       Height
0                         591.2296789263299
2.02242572596226E-4       591.2318808724546
4.040113375593453E-4      591.1772111134806
6.054635867748898E-4      591.0656696494079
8.067573541103817E-4      590.8972564802366
0.0010080510467017985     590.6719716059667
0.001209503071861434      590.3898150265982
0.0014112714639836859     590.0507867421311
0.001613513515825394      589.6548867525653
0.001815803045808458      589.3151678641206
0.0020176184164428694     588.933679050939
0.0022191170764546647     588.5104203130204
0.0024204572175778446     588.0453916503652
0.00262179740518867       587.5385930629732
0.002823296204553664      586.9900245508442
0.0030251118070788686     586.3996861139784
0.003227401660948015      585.7675777523758
0.0034297372965816655     585.156426666435
0.003631598594156443      584.5115914527656
0.0038331430353414214     583.8330721113678
0.004034528845142556      583.1208686422412
0.004235914622467191      582.3749810453862
0.004437458966299354      581.5954093208026
0.004639320101874085      580.7821534684904
0.004841655511239337      579.9352134884496
0.005043918276497792      579.1753479820683
0.005245706959792293      578.4035703235627
0.0054471789681153834     577.6198805129328
0.00564849245128538       576.8242785501786
0.005849805932728159      576.0167644353002
0.006051277935873691      575.1973381682973
0.00625306661055245       574.3659997491702
0.006455329363777148      573.5227491779189
0.0066576887471433525     572.7058993885373
0.0068595736811967985     571.9051981678125
0.007061141707903535      571.1206455157445
0.007262551112883539      570.3522414323332
0.007463960555734714      569.5999859175787
0.007665528695965537      568.8638789714809
0.00786741381892875       568.1439205940397
0.0080697734661485        567.4401107852555
0.008272395437950266      566.8127145540169
0.008474540847339949      566.2038453002043
0.008676367906616744      565.6135030238175
0.008878035577337231      565.0416877248568
0.009079703197965442      564.488399403322
0.009281530107084053      563.9536380592132
0.00948367526660416       563.4374036925301
0.009686296889411194      562.939696303273
0.009888748367913874      562.6376405765609
0.010090724718905934      562.3680324291142
0.010292383720552634      562.130871860933
0.010493883896490891      561.9261588720171
0.010695384145210549      561.7538934623666
0.010897043365029401      561.6140756319816
0.011099020079070253      561.506705380862
0.011301472064648224      561.4317827090076
0.011503924099142101      561.4519763035353
0.011705900863193036      561.5056875609372
0.011907560133099505      561.5929164812134
0.012109060430962503      561.713663064364
0.012310560654077738      561.867927310389
0.012512219699917606      562.0557092192882
0.012714196091111104      562.2770087910618
0.012916647604829811      562.5318260257097
0.013119269382981878      562.92828153983
0.013321414683399362      563.3511818648867
0.013523241722808088      563.8005270008802
0.013724909467002238      564.2763169478102
0.013926577258472442      564.7785517056768
0.014128404439597363      565.3072312744802
0.014330549975836581      565.8623556542201
0.01453317208336263       566.4439248448966
0.014735531766219815      567.0894064573345
0.014937416940401616      567.7443385995616
0.015138985143475461      568.4087212715781
0.015340394656791169      569.082554473384
0.015541804135826716      569.7658382049791
0.015743372236141022      570.4585724663636
0.015945257239325793      571.1607572575375
0.01614761668334845       571.8723925785008
0.01634987940592303       572.6968768490285
0.016551668047823844      573.5082218438944
0.016753140015983766      574.3064275630982
0.0169544534601584        575.0914940066401
0.017155766903708087      575.8634211745201
0.017357238869994664      576.6222090667383
0.017559027508778132      577.3678576832943
0.01776129022699866       578.1003670241887
0.017963625484858744      578.8562684035279
0.018165486461237414      579.5894582738017
0.018367030641941378      580.2999366350103
0.018568416255992027      580.9877034871536
0.018769801906169285      581.6527588302315
0.018971346195167795      582.295102664244
0.019173207351754082      582.9147349891912
0.019375542861313405      583.511655805073
0.019577832661189145      584.1298407438313
0.019779648217873542      584.6994894187288
0.019981146975907166      585.2206018297654
0.020182487123025287      585.6931779769413
0.020383827220813066      586.1172178602565
0.020585325830972126      586.4927214797108
0.020787141141585735      586.8196888353044
0.020989430597769934      587.098119927037
0.021191672662378012      587.4866388351275
0.021393441061935803      587.8176288836166
0.02159489309031221       588.0910900725045
0.021796186783028852      588.3070224017911
0.021997480548535182      588.4654258714763
0.022198932795108938      588.5663004815603
0.022400701557758636      588.609646232043
0.02260294412950465       588.5954631229243
0.02280539620920995       588.6293166081933
0.023007373018156245      588.60372465337
0.02320903233274668       588.5186872584541
0.023410532675187733      588.3742044234457
0.023612032942881025      588.1702761483449
0.023813692033404853      587.9069024331515
0.024015668469493705      587.5840832778657
0.024218120028423832      587.2018186824876
0.024420742013481003      586.8511821586802
0.02462288751935683       586.4515252983108
0.02482471476325633       586.0028481013791
0.02502638271145666       585.5051505678854
0.025228050706933344      584.9584326978295
0.025429878092549915      584.3626944912115
0.025632023834248962      583.7179359480314
0.025834646148682177      583.0241570682891
0.026037006051731277      582.3294387817128
0.026238891444565628      581.5977066498447
0.02644045986526205       580.8289606726844
0.026641869595683754      580.0232008502323
0.02684327929182417       579.1804271824884
0.027044847609757647      578.3006396694524
0.02724673283158932       577.3838383111246
0.027449092495796006      576.4300231075047
0.02765135518998453       575.5099152138425
0.027853143803698084      574.5810930360065
0.028054615743803996      573.6435565739966
0.028255929159991804      572.6973058278129
0.028457242575555555      571.7423407974553
0.028658714513790734      570.7786614829239
0.028860503124391312      569.8062678842186
0.029062765814231884      568.8251600013396
0.029265100752448706      567.8480682272664
0.02946696141141544       566.893763492838
0.029668505276199596      565.9622457980545
0.029869890575077548      565.0535151429157
0.03007127591008127       564.1675715274217
0.030272819883157453      563.3044149515725
0.03047468072232762       562.4640454153682
0.030677015912237836      561.6464629188087
0.030879305594778746      560.9017251585235
0.03108112103494649       560.188952116924
0.031282619677010744      559.5081437940103
0.03148395970843373       558.8593001897822
0.0316852996905265        558.2424213042397
0.031886798184716555      557.657507137383
0.032088613378814135      557.1045576892119
0.03229090271766436       556.5835729597264
0.03249314477533616       556.2419445541291
0.03269491316800606       555.9481190518763
0.03289636518952694       555.7020964529682
0.03309765887540427       555.5038767574046
0.033298952634071295      555.3534599651855
0.033500404873789524      555.2508460763111
0.03370217362955133       555.1960350907813
0.03390441619436107       555.189027008596
0.03410686840969767       555.2797149082517
0.03430884535332711       555.41858480319
0.0345105048019665        555.6056366934114
0.034712005278138794      555.8408705789154
0.03491350567956333       556.1242864597024
0.03511516490413611       556.4558843357721
0.035317141474908095      556.8356642071246
0.03551959316946952       557.2636260737601
0.035722216260139425      557.8288378579615
0.03592436286389621       558.4307395077745
0.036126191200505704      559.0693310231992
0.03632786023882611       559.7446124042355
0.03652952932442421       560.4565836508833
0.036731357802754806      561.2052447631428
0.03693350464234149       561.9905957410136
0.03713612806239678       562.8126365844963
0.03733848789969145       563.6934465963064
0.037540373227224554      564.5918399755136
0.03774194158292153       565.5078167221176
0.03794335124849304       566.4413768361188
0.03814476087977932       567.392520317517
0.03834632913270157       568.3612471663122
0.03854821428921239       569.3475573825044
0.038750573887637245      570.3514509660936
0.03895283596123875       571.423943936761
0.039154623958694366      572.4836701076263
0.039356095285438375      573.5306294786891
0.03955740808971597       574.5648220499498
0.03975872089337115       575.5862478214082
0.03996019221824938       576.5949067930644
0.04016198021260023       577.5907989649182
0.04036424228186526       578.5739243369699
0.040566577948397485      579.5440215125694
0.040768439330593605      580.4827907701881
0.04096998391520435       581.3902321098257
0.04117136993220262       582.2663455314823
0.04137275598532357       583.111131035158
0.04157430067821714       583.9245886208527
0.04177616224060133       584.7067182885663
0.0419784981588055        585.4575200382989
0.04218078754816035       586.1985005895199
0.04238260269718259       586.8814206434137
0.04258410104946696       587.5062801999801
0.04278544079179545       588.0730792592193
0.04298678048479618       588.5818178211313
0.043188278689213704      589.032495885716
0.043390093592177985      589.4251134529733
0.04359238263785921       589.7596705229034
0.043794623705544454      590.1609114056403
0.04399639111513442       590.5000123362889
0.04419784215819482       590.7769733148494
0.04439913486792596       590.9917943413218
0.044600427650446826      591.144475415706
0.04480187891170468       591.2350165380022
0.045003646684386715      591.2634177082101
0.04520588825921017       591.2296789263299
