% Model:              brazing.mph
% Version:            COMSOL 5.3.0.223
% Date:               Oct 22 2018, 15:09
% Dimension:          1
% Nodes:              225
% Expressions:        1
% Description:        Line graph
% x                       Height
0                         636.6753338144381
2.02242572596226E-4       636.667916279029
4.040113375593453E-4      636.5995362393016
6.054635867748898E-4      636.4701936952558
8.067573541103817E-4      636.2798886468918
0.0010080510467017985     636.0286210942093
0.001209503071861434      635.7163910372086
0.0014112714639836859     635.3431984758894
0.001613513515825394      634.909043410252
0.001815803045808458      634.517976328269
0.0020176184164428694     634.0820049406159
0.0022191170764546647     633.6011292472926
0.0024204572175778446     633.0753492482992
0.00262179740518867       632.5046649436357
0.002823296204553664      631.8890763333021
0.0030251118070788686     631.2285834172983
0.003227401660948015      630.5231861956246
0.0034297372965816655     629.8374084229779
0.003631598594156443      629.1161763189428
0.0038331430353414214     628.3594898835192
0.004034528845142556      627.5673491167075
0.004235914622467191      626.7397540185074
0.004437458966299354      625.8767045889189
0.004639320101874085      624.978200827942
0.004841655511239337      624.0442427355769
0.005043918276497792      623.1874073217813
0.005245706959792293      622.3191982400258
0.0054471789681153834     621.4396154903104
0.00564849245128538       620.548659072635
0.005849805932728159      619.6463289869997
0.006051277935873691      618.7326252334044
0.00625306661055245       617.8075478118493
0.006455329363777148      616.8710967223341
0.0066576887471433525     615.9634266571255
0.0068595736811967985     615.0736986354636
0.007061141707903535      614.2019126573482
0.007262551112883539      613.3480687227792
0.007463960555734714      612.5121668317568
0.007665528695965537      611.6942069842809
0.00786741381892875       610.8941891803515
0.0080697734661485        610.1121134199688
0.008272395437950266      609.406955226587
0.008474540847339949      608.7245783190124
0.008676367906616744      608.064982697245
0.008878035577337231      607.4281683612846
0.009079703197965442      606.8141353111314
0.009281530107084053      606.2228835467854
0.00948367526660416       605.6544130682465
0.009686296889411194      605.1087238755148
0.009888748367913874      604.7566703272138
0.010090724718905934      604.4420800350725
0.010292383720552634      604.1649529990912
0.010493883896490891      603.9252892192695
0.010695384145210549      603.7230886956078
0.010897043365029401      603.5583514281058
0.011099020079070253      603.4310774167637
0.011301472064648224      603.3412666615814
0.011503924099142101      603.3498237357304
0.011705900863193036      603.3969118427259
0.011907560133099505      603.482530982568
0.012109060430962503      603.6066811552569
0.012310560654077738      603.7693623607921
0.012512219699917606      603.9705745991741
0.012714196091111104      604.2103178704026
0.012916647604829811      604.4885921744776
0.013119269382981878      604.90922885707
0.013321414683399362      605.3604872200175
0.013523241722808088      605.8423672633199
0.013724909467002238      606.3548689869774
0.013926577258472442      606.8979923909899
0.014128404439597363      607.4717374753574
0.014330549975836581      608.0761042400799
0.01453317208336263       608.7110926851575
0.014735531766219815      609.4120384770105
0.014937416940401616      610.1254546825261
0.015138985143475461      610.8513413017045
0.015340394656791169      611.5896983345456
0.015541804135826716      612.3405257810492
0.015743372236141022      613.1038236412156
0.015945257239325793      613.8795919150448
0.01614761668334845       614.6678306025366
0.01634987940592303       615.5635130762278
0.016551668047823844      616.4469235368543
0.016753140015983766      617.3180619844163
0.0169544534601584        618.1769284189137
0.017155766903708087      619.0235228403465
0.017357238869994664      619.8578452487146
0.017559027508778132      620.6798956440183
0.01776129022699866       621.4896740262573
0.017963625484858744      622.3258320621561
0.018165486461237414      623.1378308467653
0.018367030641941378      623.9256703800847
0.018568416255992027      624.6893506621146
0.018769801906169285      625.4288716928548
0.018971346195167795      626.1442334723054
0.019173207351754082      626.8354360004663
0.019375542861313405      627.5024792773374
0.019577832661189145      628.1880070193866
0.019779648217873542      628.8232973494837
0.019981146975907166      629.4083502676286
0.020182487123025287      629.9431657738214
0.020383827220813066      630.4277438680621
0.020585325830972126      630.8620845503507
0.020787141141585735      631.246187820687
0.020989430597769934      631.5800536790714
0.021191672662378012      632.0099803940626
0.021393441061935803      632.3785692308704
0.02159489309031221       632.6858201894952
0.021796186783028852      632.9317332699364
0.021997480548535182      633.1163084721945
0.022198932795108938      633.2395457962692
0.022400701557758636      633.3014452421608
0.02260294412950465       633.3020068098691
0.02280539620920995       633.3463996365931
0.023007373018156245      633.3272023164308
0.02320903233274668       633.2444148493821
0.023410532675187733      633.0980372354472
0.023612032942881025      632.888069474626
0.023813692033404853      632.6145115669185
0.024015668469493705      632.2773635123247
0.024218120028423832      631.8766253108446
0.024420742013481003      631.4935322215691
0.02462288751935683       631.0584261279029
0.02482471476325633       630.5713070298457
0.02502638271145666       630.0321749273977
0.025228050706933344      629.4410298205588
0.025429878092549915      628.7978717093291
0.025632023834248962      628.1027005937086
0.025834646148682177      627.3555164736972
0.026037006051731277      626.6039912766194
0.026238891444565628      625.8135022019587
0.02644045986526205       624.9840492497151
0.026641869595683754      624.1156324198887
0.02684327929182417       623.2082517124794
0.027044847609757647      622.2619071274872
0.02724673283158932       621.2765986649122
0.027449092495796006      620.2523263247542
0.02765135518998453       619.2526389989334
0.027853143803698084      618.2447065279537
0.028054615743803996      617.228528911815
0.028255929159991804      616.2041061505174
0.028457242575555555      615.1714382440609
0.028658714513790734      614.1305251924455
0.028860503124391312      613.0813669956713
0.029062765814231884      612.0239636537381
0.029265100752448706      610.9723104386746
0.02946696141141544       609.9454419912083
0.029668505276199596      608.9433583113391
0.029869890575077548      607.9660593990669
0.03007127591008127       607.0135452543917
0.030272819883157453      606.0858158773137
0.03047468072232762       605.1828712678328
0.030677015912237836      604.3047114259489
0.030879305594778746      603.4995029984984
0.03108112103494649       602.7308276019651
0.031282619677010744      601.998685236349
0.03148395970843373       601.3030759016501
0.0316852996905265        600.6439995978684
0.031886798184716555      600.0214563250039
0.032088613378814135      599.4354460830566
0.03229090271766436       598.8859688720264
0.03249314477533616       598.5130285098137
0.03269491316800606       598.1932227975678
0.03289636518952694       597.926551735289
0.03309765887540427       597.7130153229771
0.033298952634071295      597.5526135606322
0.033500404873789524      597.4453464482541
0.03370217362955133       597.391213985843
0.03390441619436107       597.3902161733989
0.03410686840969767       597.489850854996
0.03430884535332711       597.6429453320883
0.0345105048019665        597.8494996046757
0.034712005278138794      598.1095136727583
0.03491350567956333       598.4229875363361
0.03511516490413611       598.7899211954092
0.035317141474908095      599.2103146499772
0.03551959316946952       599.6841679000407
0.035722216260139425      600.2952622532221
0.03592436286389621       600.9472777075719
0.036126191200505704      601.6402142630897
0.03632786023882611       602.374071919776
0.03652952932442421       603.1488506776307
0.036731357802754806      603.9645505366536
0.03693350464234149       604.8211714968447
0.03713612806239678       605.7187135582043
0.03733848789969145       606.6757443536794
0.037540373227224554      607.6528112499158
0.03774194158292153       608.6499142469133
0.03794335124849304       609.6670533446722
0.03814476087977932       610.7042285431924
0.03834632913270157       611.7614398424738
0.03854821428921239       612.8386872425164
0.038750573887637245      613.9359707433202
0.03895283596123875       615.0962382679667
0.039154623958694366      616.2437361537017
0.039356095285438375      617.3784644005252
0.03955740808971597       618.5004230084373
0.03975872089337115       619.6096119774379
0.03996019221824938       620.7060313075272
0.04016198021260023       621.7896809987049
0.04036424228186526       622.860561050971
0.040566577948397485      623.9184062422821
0.040768439330593605      624.9423564129114
0.04096998391520435       625.932411562859
0.04117136993220262       626.8885716921247
0.04137275598532357       627.8108368007087
0.04157430067821714       628.6992068886108
0.04177616224060133       629.5536819558309
0.0419784981588055        630.3742620023695
0.04218078754816035       631.1783337470304
0.04238260269718259       631.9217964616957
0.04258410104946696       632.6046501463655
0.04278544079179545       633.2268948010396
0.04298678048479618       633.7885304257181
0.043188278689213704      634.2895570204012
0.043390093592177985      634.7299745850884
0.04359238263785921       635.1097831197801
0.043794623705544454      635.5380545885334
0.04399639111513442       635.8998753053093
0.04419784215819482       636.1952452701078
0.04439913486792596       636.4241644829286
0.044600427650446826      636.5866329437721
0.04480187891170468       636.6826506526382
0.045003646684386715      636.7122176095269
0.04520588825921017       636.6753338144381
