% Model:              brazing.mph
% Version:            COMSOL 5.3.0.223
% Date:               Oct 22 2018, 14:47
% Dimension:          1
% Nodes:              225
% Expressions:        1
% Description:        Line graph
% x                       Height
0                         631.2809626635914
2.02242572596226E-4       631.274109934799
4.040113375593453E-4      631.2061155906624
6.054635867748898E-4      631.0769796311816
8.067573541103817E-4      630.8867020563567
0.0010080510467017985     630.6352828661876
0.001209503071861434      630.3227220606742
0.0014112714639836859     629.9490196398167
0.001613513515825394      629.5141756036151
0.001815803045808458      629.1264316549101
0.0020176184164428694     628.6937076609618
0.0022191170764546647     628.21600362177
0.0024204572175778446     627.6933195373349
0.00262179740518867       627.1256554076565
0.002823296204553664      626.5130112327346
0.0030251118070788686     625.8553870125694
0.003227401660948015      625.1527827471609
0.0034297372965816655     624.471236842079
0.003631598594156443      623.7540528444189
0.0038331430353414214     623.0012307541808
0.004034528845142556      622.2127705713647
0.004235914622467191      621.3886722959705
0.004437458966299354      620.5289359279984
0.004639320101874085      619.6335614674482
0.004841655511239337      618.7025489143201
0.005043918276497792      617.8533205928563
0.005245706959792293      616.9925240471414
0.0054471789681153834     616.1201592771749
0.00564849245128538       615.2362262829573
0.005849805932728159      614.3407250644883
0.006051277935873691      613.4336556217679
0.00625306661055245       612.5150179547963
0.006455329363777148      611.5848120635733
0.0066576887471433525     610.683770879958
0.0068595736811967985     609.8007938713167
0.007061141707903535      608.9358810376493
0.007262551112883539      608.089032378956
0.007463960555734714      607.2602478952365
0.007665528695965537      606.4495275864912
0.00786741381892875       605.6568714527198
0.0080697734661485        604.8822794939223
0.008272395437950266      604.1864292141853
0.008474540847339949      603.5128994040879
0.008676367906616744      602.86169006363
0.008878035577337231      602.2328011928118
0.009079703197965442      601.6262327916332
0.009281530107084053      601.0419848600943
0.00948367526660416       600.4800573981948
0.009686296889411194      599.9404504059352
0.009888748367913874      599.599767262496
0.010090724718905934      599.296169823513
0.010292383720552634      599.0296580889861
0.010493883896490891      598.8002320589156
0.010695384145210549      598.6078917333012
0.010897043365029401      598.452637112143
0.011099020079070253      598.3344681954409
0.011301472064648224      598.253384983195
0.011503924099142101      598.2721624377048
0.011705900863193036      598.3290747406323
0.011907560133099505      598.4241218919778
0.012109060430962503      598.5573038917413
0.012310560654077738      598.7286207399226
0.012512219699917606      598.9380724365219
0.012714196091111104      599.185658981539
0.012916647604829811      599.4713803749739
0.013119269382981878      599.9027309096241
0.013321414683399362      600.3643332239643
0.013523241722808088      600.8561873179947
0.013724909467002238      601.3782931917151
0.013926577258472442      601.9306508451257
0.014128404439597363      602.5132602782264
0.014330549975836581      603.1261214910173
0.01453317208336263       603.7692344834983
0.014735531766219815      604.479397440089
0.014937416940401616      605.2015284378455
0.015138985143475461      605.9356274767679
0.015340394656791169      606.6816945568562
0.015541804135826716      607.4397296781104
0.015743372236141022      608.2097328405305
0.015945257239325793      608.9917040441165
0.01614761668334845       609.7856432888683
0.01634987940592303       610.690740492088
0.016551668047823844      611.5830503093167
0.016753140015983766      612.4625727405545
0.0169544534601584        613.3293077858011
0.017155766903708087      614.1832554450568
0.017357238869994664      615.0244157183216
0.017559027508778132      615.8527886055953
0.01776129022699866       616.668374106878
0.017963625484858744      617.5103995418607
0.018165486461237414      618.3280302823231
0.018367030641941378      619.1212663282652
0.018568416255992027      619.890107679687
0.018769801906169285      620.6345543365886
0.018971346195167795      621.3546062989699
0.019173207351754082      622.0502635668308
0.019375542861313405      622.7215261401715
0.019577832661189145      623.4122819504421
0.019779648217873542      624.0520801310906
0.019981146975907166      624.6409206821171
0.020182487123025287      625.1788036035215
0.020383827220813066      625.6657288953039
0.020585325830972126      626.1016965574643
0.020787141141585735      626.4867065900025
0.020989430597769934      626.8207589929187
0.021191672662378012      627.2553289514102
0.021393441061935803      627.6279180437076
0.02159489309031221       627.9385262698112
0.021796186783028852      628.1871536297207
0.021997480548535182      628.3738001234362
0.022198932795108938      628.498465750958
0.022400701557758636      628.5611505122856
0.02260294412950465       628.5618544074193
0.02280539620920995       628.6075125060975
0.023007373018156245      628.5889560149551
0.02320903233274668       628.5061849339925
0.023410532675187733      628.3591992632093
0.023612032942881025      628.1479990026057
0.023813692033404853      627.8725841521818
0.024015668469493705      627.5329547119374
0.024218120028423832      627.1291106818725
0.024420742013481003      626.745777352842
0.02462288751935683       626.3098841617458
0.02482471476325633       625.821431108584
0.02502638271145666       625.2804181933565
0.025228050706933344      624.6868454160634
0.025429878092549915      624.0407127767046
0.025632023834248962      623.3420202752802
0.025834646148682177      622.5907679117902
0.026037006051731277      621.8361916284302
0.026238891444565628      621.0421407054461
0.02644045986526205       620.2086151428375
0.026641869595683754      619.3356149406047
0.02684327929182417       618.4231400987477
0.027044847609757647      617.4711906172662
0.02724673283158932       616.4797664961606
0.027449092495796006      615.4488677354306
0.02765135518998453       614.4454151407422
0.027853143803698084      613.4332439326317
0.028054615743803996      612.4123541110991
0.028255929159991804      611.3827456761444
0.028457242575555555      610.3444186277676
0.028658714513790734      609.2973729659685
0.028860503124391312      608.2416086907474
0.029062765814231884      607.1771258021041
0.029265100752448706      606.1183261606295
0.02946696141141544       605.0841169497373
0.029668505276199596      604.0744981694274
0.029869890575077548      603.0894698196998
0.03007127591008127       602.1290319005547
0.030272819883157453      601.1931844119918
0.03047468072232762       600.2819273540114
0.030677015912237836      599.3952607266132
0.030879305594778746      598.5831137021926
0.03108112103494649       597.8068508568743
0.031282619677010744      597.0664721906583
0.03148395970843373       596.3619777035444
0.0316852996905265        595.6933673955327
0.031886798184716555      595.0606412666235
0.032088613378814135      594.4637993168163
0.03229090271766436       593.9028415461115
0.03249314477533616       593.5234653472342
0.03269491316800606       593.1967641696677
0.03289636518952694       592.9227380134123
0.03309765887540427       592.7013868784679
0.033298952634071295      592.5327107648346
0.033500404873789524      592.4167096725123
0.03370217362955133       592.353383601501
0.03390441619436107       592.3427325518007
0.03410686840969767       592.4341975389914
0.03430884535332711       592.5787329179745
0.0345105048019665        592.7763386887502
0.034712005278138794      593.0270148513183
0.03491350567956333       593.330761405679
0.03511516490413611       593.687578351832
0.035317141474908095      594.0974656897777
0.03551959316946952       594.5604234195158
0.035722216260139425      595.1641226826747
0.03592436286389621       595.8084752811964
0.036126191200505704      596.4934812150806
0.03632786023882611       597.2191404843272
0.03652952932442421       597.9854530889367
0.036731357802754806      598.7924190289085
0.03693350464234149       599.6400383042431
0.03713612806239678       600.5283109149402
0.03733848789969145       601.4775518389406
0.037540373227224554      602.4466489442731
0.03774194158292153       603.4356022309378
0.03794335124849304       604.4444116989345
0.03814476087977932       605.4730773482632
0.03834632913270157       606.5215991789242
0.03854821428921239       607.5899771909172
0.038750573887637245      608.6782113842423
0.03895283596123875       609.8329356690577
0.039154623958694366      610.9747255169879
0.039356095285438375      612.1035809280324
0.03955740808971597       613.2195019021915
0.03975872089337115       614.3224884394652
0.03996019221824938       615.4125405398535
0.04016198021260023       616.4896582033563
0.04036424228186526       617.5538414299737
0.040566577948397485      618.6053086952568
0.040768439330593605      619.6230533744625
0.04096998391520435       620.607075467591
0.04117136993220262       621.5573749746421
0.04137275598532357       622.4739518956159
0.04157430067821714       623.3568062305125
0.04177616224060133       624.2059379793316
0.0419784981588055        625.0213471420733
0.04218078754816035       625.8221493434664
0.04238260269718259       626.5619878606735
0.04258410104946696       627.2408626936946
0.04278544079179545       627.8587738425294
0.04298678048479618       628.4157213071783
0.043188278689213704      628.9117050876409
0.043390093592177985      629.3467251839176
0.04359238263785921       629.7207815960081
0.043794623705544454      630.1490934406789
0.04399639111513442       630.5107512250005
0.04419784215819482       630.8057549489724
0.04439913486792596       631.0341046125951
0.044600427650446826      631.1958002158683
0.04480187891170468       631.2908417587921
0.045003646684386715      631.3192292413664
0.04520588825921017       631.2809626635914
