% Model:              brazing.mph
% Version:            COMSOL 5.3.0.223
% Date:               Oct 22 2018, 15:18
% Dimension:          1
% Nodes:              225
% Expressions:        1
% Description:        Line graph
% x                       Height
0                         609.4552375925351
2.02242572596226E-4       609.4483730853455
4.040113375593453E-4      609.3820675604519
6.054635867748898E-4      609.2563210178546
8.067573541103817E-4      609.0711334575534
0.0010080510467017985     608.8265048795482
0.001209503071861434      608.5224352838392
0.0014112714639836859     608.1589246704264
0.001613513515825394      607.7359730393097
0.001815803045808458      607.3666179577057
0.0020176184164428694     606.9535543703724
0.0022191170764546647     606.4967822773099
0.0024204572175778446     605.9963016785182
0.00262179740518867       605.4521125739972
0.002823296204553664      604.8642149637469
0.0030251118070788686     604.2326088477673
0.003227401660948015      603.5572942260585
0.0034297372965816655     602.9055714546804
0.003631598594156443      602.2188407028804
0.0038331430353414214     601.4971019706583
0.004034528845142556      600.7403552580141
0.004235914622467191      599.9486005649479
0.004437458966299354      599.1218378914598
0.004639320101874085      598.2600672375495
0.004841655511239337      597.3632886032174
0.005043918276497792      596.5515558320765
0.005245706959792293      595.727808357425
0.0054471789681153834     594.8920461792629
0.00564849245128538       594.0442692975901
0.005849805932728159      593.1844777124065
0.006051277935873691      592.3126714237125
0.00625306661055245       591.4288504315076
0.006455329363777148      590.5330147357922
0.0066576887471433525     589.6652961597234
0.0068595736811967985     588.8141796204671
0.007061141707903535      587.9796651180234
0.007262551112883539      587.1617526523921
0.007463960555734714      586.3604422235734
0.007665528695965537      585.5757338315672
0.00786741381892875       584.8076274763736
0.0080697734661485        584.0561231579924
0.008272395437950266      583.3832669848872
0.008474540847339949      582.7301746519219
0.008676367906616744      582.0968461590962
0.008878035577337231      581.4832815064105
0.009079703197965442      580.8894806938647
0.009281530107084053      580.3154437214588
0.00948367526660416       579.7611705891927
0.009686296889411194      579.2266612970665
0.009888748367913874      578.8906890875658
0.010090724718905934      578.588963424722
0.010292383720552634      578.3214843085353
0.010493883896490891      578.0882517390057
0.010695384145210549      577.8892657161332
0.010897043365029401      577.7245262399176
0.011099020079070253      577.5940333103591
0.011301472064648224      577.4977869274577
0.011503924099142101      577.4994855820286
0.011705900863193036      577.5366314685913
0.011907560133099505      577.6092245871458
0.012109060430962503      577.7172649376922
0.012310560654077738      577.8607525202304
0.012512219699917606      578.0396873347606
0.012714196091111104      578.2540693812824
0.012916647604829811      578.5038986597963
0.013119269382981878      578.898167007666
0.013321414683399362      579.3206076535121
0.013523241722808088      579.7712205973346
0.013724909467002238      580.2500058391336
0.013926577258472442      580.7569633789088
0.014128404439597363      581.2920932166606
0.014330549975836581      581.8553953523888
0.01453317208336263       582.4468697860933
0.014735531766219815      583.1046818274133
0.014937416940401616      583.7733449877064
0.015138985143475461      584.4528592669727
0.015340394656791169      585.1432246652123
0.015541804135826716      585.844441182425
0.015743372236141022      586.5565088186108
0.015945257239325793      587.27942757377
0.01614761668334845       588.0131974479023
0.01634987940592303       588.8603151512002
0.016551668047823844      589.6948823278607
0.016753140015983766      590.5168989778834
0.0169544534601584        591.3263651012686
0.017155766903708087      592.1232806980162
0.017357238869994664      592.907645768126
0.017559027508778132      593.6794603115983
0.01776129022699866       594.4387243284331
0.017963625484858744      595.2252771191734
0.018165486461237414      595.9888593610449
0.018367030641941378      596.7294710540475
0.018568416255992027      597.4471121981813
0.018769801906169285      598.1417827934463
0.018971346195167795      598.8134828398422
0.019173207351754082      599.4622123373695
0.019375542861313405      600.0879712860278
0.019577832661189145      600.739112384542
0.019779648217873542      601.3408409899333
0.019981146975907166      601.8931571022018
0.020182487123025287      602.3960607213476
0.020383827220813066      602.8495518473705
0.020585325830972126      603.2536304802705
0.020787141141585735      603.6082966200479
0.020989430597769934      603.9135502667023
0.021191672662378012      604.3313683553238
0.021393441061935803      604.6895895916314
0.02159489309031221       604.9882139756252
0.021796186783028852      605.227241507305
0.021997480548535182      605.406672186671
0.022198932795108938      605.5265060137232
0.022400701557758636      605.5867429884614
0.02260294412950465       605.5873831108858
0.02280539620920995       605.6387277181826
0.023007373018156245      605.6284506026751
0.02320903233274668       605.5565517643632
0.023410532675187733      605.423031203247
0.023612032942881025      605.2278889193265
0.023813692033404853      604.9711249126016
0.024015668469493705      604.6527391830724
0.024218120028423832      604.2727317307388
0.024420742013481003      603.9221713662431
0.02462288751935683       603.5214343599317
0.02482471476325633       603.0705207118046
0.02502638271145666       602.5694304218619
0.025228050706933344      602.0181634901033
0.025429878092549915      601.4167199165291
0.025632023834248962      600.7650997011392
0.025834646148682177      600.0633028439336
0.026037006051731277      599.3623536978871
0.026238891444565628      598.623510572697
0.02644045986526205       597.846773468363
0.026641869595683754      597.0321423848856
0.02684327929182417       596.1796173222643
0.027044847609757647      595.2891982804995
0.02724673283158932       594.3608852595909
0.027449092495796006      593.3946782595386
0.02765135518998453       592.4613790920716
0.027853143803698084      591.5195174271886
0.028054615743803996      590.5690932648897
0.028255929159991804      589.6101066051747
0.028457242575555555      588.6425574480436
0.028658714513790734      587.6664457934966
0.028860503124391312      586.6817716415334
0.029062765814231884      585.6885349921544
0.029265100752448706      584.7002330721925
0.02946696141141544       583.7352921467547
0.029668505276199596      582.7937122158409
0.029869890575077548      581.8754932794512
0.03007127591008127       580.9806353375856
0.030272819883157453      580.109138390244
0.03047468072232762       579.2610024374263
0.030677015912237836      578.4362274791328
0.030879305594778746      577.6857903659327
0.03108112103494649       576.9685188671587
0.031282619677010744      576.2844129828103
0.03148395970843373       575.6334727128879
0.0316852996905265        575.0156980573913
0.031886798184716555      574.4310890163206
0.032088613378814135      573.8796455896756
0.03229090271766436       573.3613677774566
0.03249314477533616       573.0234445360221
0.03269491316800606       572.7348350761657
0.03289636518952694       572.4955393978877
0.03309765887540427       572.3055575011878
0.033298952634071295      572.164889386066
0.033500404873789524      572.0735350525225
0.03370217362955133       572.0314945005571
0.03390441619436107       572.0387677301699
0.03410686840969767       572.1452723279785
0.03430884535332711       572.3014416137718
0.0345105048019665        572.5072755875495
0.034712005278138794      572.762774249312
0.03491350567956333       573.067937599059
0.03511516490413611       573.4227656367906
0.035317141474908095      573.8272583625069
0.03551959316946952       574.2814157762077
0.035722216260139425      574.8737225573537
0.03592436286389621       575.5038222133697
0.036126191200505704      576.1717147442556
0.03632786023882611       576.8774001500113
0.03652952932442421       577.6208784306369
0.036731357802754806      578.4021495861324
0.03693350464234149       579.2212136164977
0.03713612806239678       580.078070521733
0.03733848789969145       580.9942228096178
0.037540373227224554      581.9283899017488
0.03774194158292153       582.8805717981262
0.03794335124849304       583.8507684987499
0.03814476087977932       584.8389800036198
0.03834632913270157       585.8452063127362
0.03854821428921239       586.8694474260988
0.038750573887637245      587.9117033437077
0.03895283596123875       589.0213198388544
0.039154623958694366      590.1176406626116
0.039356095285438375      591.2006658149794
0.03955740808971597       592.2703952959578
0.03975872089337115       593.3268291055467
0.03996019221824938       594.3699672437463
0.04016198021260023       595.3998097105564
0.04036424228186526       596.4163565059769
0.040566577948397485      597.4205525453464
0.040768439330593605      598.3920055340245
0.04096998391520435       599.3307154720114
0.04117136993220262       600.236682359307
0.04137275598532357       601.1099061959113
0.04157430067821714       601.9503869818243
0.04177616224060133       602.758124717046
0.0419784981588055        603.5331194015763
0.04218078754816035       604.2983685980179
0.04238260269718259       605.0038925671005
0.04258410104946696       605.6496913088246
0.04278544079179545       606.2357648231898
0.04298678048479618       606.7621131101963
0.043188278689213704      607.228736169844
0.043390093592177985      607.635634002133
0.04359238263785921       607.9828066070631
0.043794623705544454      608.3937416646241
0.04399639111513442       608.7398535266489
0.04419784215819482       609.0211421931373
0.04439913486792596       609.2376076640894
0.044600427650446826      609.3892499395052
0.04480187891170468       609.4760690193849
0.045003646684386715      609.498064903728
0.04520588825921017       609.4552375925351
