% Model:              brazing.mph
% Version:            COMSOL 5.3.0.223
% Date:               Oct 22 2018, 15:34
% Dimension:          1
% Nodes:              225
% Expressions:        1
% Description:        Line graph
% x                       Height
0                         650.6194278052787
2.02242572596226E-4       650.6106499072349
4.040113375593453E-4      650.5408530615163
6.054635867748898E-4      650.410037268123
8.067573541103817E-4      650.2182025270548
0.0010080510467017985     649.9653488383118
0.001209503071861434      649.6514762018943
0.0014112714639836859     649.2765846178016
0.001613513515825394      648.8406740860345
0.001815803045808458      648.4478816657619
0.0020176184164428694     648.01014308399
0.0022191170764546647     647.5274583407189
0.0024204572175778446     646.9998274359485
0.00262179740518867       646.427250369679
0.002823296204553664      645.8097271419101
0.0030251118070788686     645.147257752642
0.003227401660948015      644.4398422018746
0.0034297372965816655     643.7520547155877
0.003631598594156443      643.0287694777062
0.0038331430353414214     642.2699864882302
0.004034528845142556      641.4757057471594
0.004235914622467191      640.645927254494
0.004437458966299354      639.780651010234
0.004639320101874085      638.8798770143793
0.004841655511239337      637.9436052669301
0.005043918276497792      637.0846139738592
0.005245706959792293      636.2142195546772
0.0054471789681153834     635.3324220093841
0.00564849245128538       634.4392213379799
0.005849805932728159      633.5346175404646
0.006051277935873691      632.6186106168382
0.00625306661055245       631.6912005671006
0.006455329363777148      630.752387391252
0.0066576887471433525     629.8423840518228
0.0068595736811967985     628.9503277653052
0.007061141707903535      628.0762185316992
0.007262551112883539      627.2200563510047
0.007463960555734714      626.3818412232217
0.007665528695965537      625.5615731483504
0.00786741381892875       624.7592521263905
0.0080697734661485        623.9748781573422
0.008272395437950266      623.2674514949272
0.008474540847339949      622.5828010897756
0.008676367906616744      621.9209269418874
0.008878035577337231      621.2818290512629
0.009079703197965442      620.6655074179017
0.009281530107084053      620.0719620418042
0.00948367526660416       619.5011929229701
0.009686296889411194      618.9532000613996
0.009888748367913874      618.5991040077159
0.010090724718905934      618.2824823656083
0.010292383720552634      618.0033351350767
0.010493883896490891      617.761662316121
0.010695384145210549      617.5574639087414
0.010897043365029401      617.3907399129379
0.011099020079070253      617.2614903287102
0.011301472064648224      617.1697151560586
0.011503924099142101      617.1764061906109
0.011705900863193036      617.2216505957637
0.011907560133099505      617.3054483715171
0.012109060430962503      617.427799517871
0.012310560654077738      617.5887040348255
0.012512219699917606      617.7881619223804
0.012714196091111104      618.026173180536
0.012916647604829811      618.3027378092921
0.013119269382981878      618.7218910487924
0.013321414683399362      619.1717022200313
0.013523241722808088      619.6521713230089
0.013724909467002238      620.1632983577251
0.013926577258472442      620.70508332418
0.014128404439597363      621.2775262223735
0.014330549975836581      621.8806270523057
0.01453317208336263       622.5143858139766
0.014735531766219815      623.2142318117023
0.014937416940401616      623.9265784673986
0.015138985143475461      624.6514257810652
0.015340394656791169      625.3887737527021
0.015541804135826716      626.1386223823096
0.015743372236141022      626.9009716698873
0.015945257239325793      627.6758216154357
0.01614761668334845       628.4631722189541
0.01634987940592303       629.3583163372314
0.016551668047823844      630.2412244348774
0.016753140015983766      631.1118965118922
0.0169544534601584        631.9703325682757
0.017155766903708087      632.8165326040281
0.017357238869994664      633.6504966191494
0.017559027508778132      634.4722246136392
0.01776129022699866       635.2817165874982
0.017963625484858744      636.117670118993
0.018165486461237414      636.9295369170975
0.018367030641941378      637.7173169818115
0.018568416255992027      638.4810103131349
0.018769801906169285      639.2206169110679
0.018971346195167795      639.9361367756104
0.019173207351754082      640.6275699067622
0.019375542861313405      641.2949163045239
0.019577832661189145      641.980809933028
0.019779648217873542      642.6165076144546
0.019981146975907166      643.2020093488038
0.020182487123025287      643.7373151360756
0.020383827220813066      644.22242497627
0.020585325830972126      644.6573388693869
0.020787141141585735      645.0420568154262
0.020989430597769934      645.3765788143882
0.021191672662378012      645.8074887184878
0.021393441061935803      646.17709851111
0.02159489309031221       646.4854081922547
0.021796186783028852      646.7324177619219
0.021997480548535182      646.9181272201115
0.022198932795108938      647.0425365668237
0.022400701557758636      647.1056458020583
0.02260294412950465       647.1074549258155
0.02280539620920995       647.1532245124532
0.023007373018156245      647.1354351821556
0.02320903233274668       647.0540869349222
0.023410532675187733      646.9091797707534
0.023612032942881025      646.7007136896491
0.023813692033404853      646.4286886916092
0.024015668469493705      646.0931047766338
0.024218120028423832      645.6939619447229
0.024420742013481003      645.3126941182582
0.02462288751935683       644.8794385284739
0.02482471476325633       644.3941951753701
0.02502638271145666       643.8569640589469
0.025228050706933344      643.2677451792042
0.025429878092549915      642.6265385361421
0.025632023834248962      641.9333441297604
0.025834646148682177      641.1881619600591
0.026037006051731277      640.4387308808125
0.026238891444565628      639.6503527897149
0.02644045986526205       638.8230276867663
0.026641869595683754      637.9567555719666
0.02684327929182417       637.051536445316
0.027044847609757647      636.1073703068142
0.02724673283158932       635.1242571564616
0.027449092495796006      634.1021969942578
0.02765135518998453       633.1048675784663
0.027853143803698084      632.0992909326033
0.028054615743803996      631.0854670566686
0.028255929159991804      630.0633959506623
0.028457242575555555      629.0330776145845
0.028658714513790734      627.9945120484351
0.028860503124391312      626.9476992522142
0.029062765814231884      625.8926392259216
0.029265100752448706      624.8433564381545
0.02946696141141544       623.8188589917219
0.029668505276199596      622.8191468866237
0.029869890575077548      621.8442201228601
0.03007127591008127       620.8940787004309
0.030272819883157453      619.9687226193362
0.03047468072232762       619.0681518795759
0.030677015912237836      618.1923664811502
0.030879305594778746      617.3895214587791
0.03108112103494649       616.6231843294735
0.031282619677010744      615.8933550932335
0.03148395970843373       615.200033750059
0.0316852996905265        614.5432202999501
0.031886798184716555      613.9229147429069
0.032088613378814135      613.3391170789291
0.03229090271766436       612.7918273080169
0.03249314477533616       612.4211504285325
0.03269491316800606       612.1035676583546
0.03289636518952694       611.8390789974833
0.03309765887540427       611.6276844459184
0.033298952634071295      611.46938400366
0.033500404873789524      611.364177670708
0.03370217362955133       611.3120654470627
0.03390441619436107       611.3130473327237
0.03410686840969767       611.414652106151
0.03430884535332711       611.5696637668088
0.0345105048019665        611.778082314697
0.034712005278138794      612.0399077498157
0.03491350567956333       612.3551400721648
0.03511516490413611       612.7237792817442
0.035317141474908095      613.145825378554
0.03551959316946952       613.6212783625942
0.035722216260139425      614.2339909876753
0.03592436286389621       614.8875635755024
0.036126191200505704      615.5819961260758
0.03632786023882611       616.3172886393953
0.03652952932442421       617.093441115461
0.036731357802754806      617.910453554273
0.03693350464234149       618.7683259558311
0.03713612806239678       619.6670583201353
0.03733848789969145       620.6252576832882
0.037540373227224554      621.6034252307696
0.03774194158292153       622.6015609625795
0.03794335124849304       623.6196648787179
0.03814476087977932       624.6577369791848
0.03834632913270157       625.7157772639804
0.03854821428921239       626.7937857331044
0.038750573887637245      627.891762386557
0.03895283596123875       629.0527029808025
0.039154623958694366      630.200799491013
0.039356095285438375      631.3360519171888
0.03955740808971597       632.4584602593297
0.03975872089337115       633.5680245174359
0.03996019221824938       634.6647446915073
0.04016198021260023       635.7486207815439
0.04036424228186526       636.8196527875456
0.040566577948397485      637.8776209623095
0.040768439330593605      638.9016282887359
0.04096998391520435       639.891674766825
0.04117136993220262       640.8477603965764
0.04137275598532357       641.7698851779904
0.04157430067821714       642.658049111067
0.04177616224060133       643.5122521958062
0.0419784981588055        644.332494432208
0.04218078754816035       645.1361474536973
0.04238260269718259       645.8791230758776
0.04258410104946696       646.5614212987487
0.04278544079179545       647.1830421223109
0.04298678048479618       647.7439855465641
0.043188278689213704      648.2442515715082
0.043390093592177985      648.6838401971432
0.04359238263785921       649.0627514234692
0.043794623705544454      649.4901374511937
0.04399639111513442       649.8510087703474
0.04419784215819482       650.1453653809301
0.04439913486792596       650.3732072829417
0.044600427650446826      650.5345344763824
0.04480187891170468       650.6293469612523
0.045003646684386715      650.6576447375509
0.04520588825921017       650.6194278052787
