% Model:              brazing.mph
% Version:            COMSOL 5.3.0.223
% Date:               Oct 22 2018, 15:22
% Dimension:          1
% Nodes:              161
% Expressions:        1
% Description:        Line graph
% x                       Height
0                         604.5162642770815
1.9693985890610136E-4     604.470891114857
3.9298030043864816E-4     604.4376514388476
5.884188308682271E-4      604.4165452490533
7.835557095112735E-4      604.4075725454742
9.786925881542028E-4      604.4107333281102
0.0011741311185834375     604.4260275969611
0.0013701715601154056     604.4534553520274
0.0015671114190207022     604.4930165933087
0.0017642608961497635     604.262723825864
0.0019605081241513326     604.0359203857216
0.0021561515411346144     603.8126062728822
0.002351492352702621      603.5927814873454
0.0025468331642698894     603.3764460291113
0.0027424765812509564     603.1635998981798
0.0029387238092488436     602.954243094551
0.0031358732863727766     602.7483756182247
0.0033326885608882563     602.4156442172729
0.0035286060983021257     602.0931602005234
0.0037239228519497995     601.7809235679766
0.003918938519653848      601.4789343196323
0.004113954187357973      601.1871924554906
0.004309270941005876      600.9056979755516
0.004505188478420127      600.6344508798151
0.004702003752936137      600.3734511682811
0.004899138702461749      600.0674328351159
0.005095371599302965      599.7796144646966
0.005291000816927052      599.509996057023
0.005486327495291825      599.2585776120951
0.005681654173656831      599.025359129913
0.0058772833912816074     598.8103406104767
0.0060735162881239745     598.6135220537861
0.006270651237651189      598.4349034598413
0.006467582778148322      598.2750346415453
0.006663615013526554      598.1439273673402
0.006859045413116663      598.041581637226
0.0070541741987231454     597.9679974512029
0.007249302984329781      597.9231748092706
0.007444733383920351      597.9071137114291
0.007640765619299351      597.9198141576786
0.007837697159797551      597.9612761480189
0.008034634474091872      597.9580250667499
0.008230672405352359      597.9863625835634
0.008426108448549354      598.0462886984595
0.008621242851524007      598.1378034114382
0.008816377254498534      598.2609067224995
0.009011813297695145      598.4155986316433
0.009207851228955002      598.6018791388698
0.00940478854324844       598.8197482441789
0.00960192671152544       599.0591592683489
0.00979816278359587       599.3160261900115
0.009993795147248338      599.5903490091665
0.010189124956984269      599.8821277258139
0.010384454766719743      600.1913623399537
0.010580087130370853      600.5180528515859
0.010776323202439026      600.8621992607107
0.01097346137071288       601.2238015673278
0.011170281912174305      601.5174152049872
0.011366204645540166      601.8254615468584
0.011561526547508357      602.1479405929413
0.011756547339625332      602.4848523432358
0.011951568131742307      602.8361967977421
0.0121468900337105        603.2019739564603
0.012342812767076368      603.5821838193901
0.0125396333085378        603.9768263865317
0.012736771215691979      604.1965823600062
0.012933007030171178      604.4235103213194
0.013128639138602195      604.6576102704711
0.013323968694306592      604.8988822074614
0.013519298250011432      605.1473261322902
0.013714930358443784      605.4029420449576
0.0139111661729252        605.6657299454636
0.014108304080082462      605.9356898338082
0.014305241249097643      605.9180711761577
0.014501279037039759      605.9083532649677
0.014696714938233999      605.9065361002381
0.014891849199866372      605.912619681969
0.015086983461498874      605.9266040101603
0.015282419362693495      605.9484890848122
0.01547845715063625       605.9782749059244
0.015675394319652317      606.0159614734971
0.015872325504405583      605.709891417978
0.01606835738884011       605.4116902248031
0.016263787440706973      605.1213578939728
0.016458915880206496      604.8388944254868
0.016654044319705866      604.5642998193454
0.016849474371572262      604.2975740755481
0.017045506256006017      604.0387171940954
0.017242437440758204      603.787729174987
0.01743957168037589       603.325208802705
0.017635803876907424      602.8604451269606
0.01783143240066149       602.3934381477535
0.018026758388388308      601.924187865084
0.01822208437611492       601.4526942789521
0.01841771289986836       600.9789573893577
0.018613945096398854      600.5029771963007
0.018811079336015085      600.0247536997813
0.019007894687321662      599.4889673671878
0.01920381230049143       598.9588002354761
0.019399129129200405      598.4342523046462
0.01959414487161704       597.9153235746979
0.01978916061403359       597.4020140456314
0.01998447744274231       596.8943237174466
0.020180395055911654      596.3922525901435
0.020377210407217645      595.8958006637221
0.020574360469106157      595.4311678542001
0.020770608273960874      594.9856728847988
0.020966252262493188      594.559315755518
0.021161593642948652      594.1520964663581
0.021356935023404883      593.7640150173188
0.021552579011939476      593.3950714084002
0.021748826816797996      593.0452656396023
0.021945976878691802      592.7145977109251
0.022142917141692885      592.4493358052987
0.022338957981867254      592.2188328136407
0.022534396907280062      592.0230887359512
0.02272953417907009       591.8621035722301
0.02292467145086023       591.7358773224776
0.02312011037627338       591.6444099866934
0.02331615121644832       591.5877015648776
0.023513091479450195      591.5657520570304
0.023710025135207962      591.5146589205821
0.02390605945730262       591.5020512980525
0.024101491924457957      591.527929189442
0.024296622768016963      591.5922925947503
0.024491753611575823      591.6951415139777
0.02468718607873073       591.8364759471237
0.024883220400824673      592.0162958941889
0.025080154056581445      592.234601355173
0.025277299572591536      592.5240698110006
0.025473542893039384      592.8329714626365
0.02566918243840792       593.1613063100807
0.025864519396400307      593.5090743533332
0.026059856354392216      593.876275592394
0.026255495899759323      594.2629100272633
0.026451739220204794      594.6689776579408
0.026648884736211575      595.0944784844268
0.02684569473774919       595.5417932291792
0.027041607073256636      595.9966995146611
0.027236918672681274      596.4591973408725
0.027431929210095855      596.9292867078133
0.027626939747510428      597.4069676154835
0.027822251346935042      597.8922400638832
0.028018163682442445      598.3851040530124
0.028214973683980002      598.885559582871
0.028412120943583204      599.3364574525194
0.028608365984047285      599.7841140679647
0.02880400723361381       600.2285294292068
0.02899934588786498       600.6697035362458
0.02919468454211669       601.1076363890817
0.029390325791684838      601.5423279877145
0.02958657083215161       601.9737783321442
0.029783718091758563      602.4019874223708
0.029980652759780888      602.6530311702448
0.030176688080480362      602.9078580206804
0.030372121537075924      603.1664679736772
0.03056725336547531       603.4288610292353
0.030762385193874833      603.695037187355
0.030957818650470807      603.9649964480358
0.031153853971170976      604.2387388112779
0.031350788639194264      604.5162642770815
