% Model:              brazing.mph
% Version:            COMSOL 5.3.0.223
% Date:               Oct 22 2018, 15:31
% Dimension:          1
% Nodes:              161
% Expressions:        1
% Description:        Line graph
% x                       Height
0                         633.7153683558453
1.9693985890610136E-4     633.6848660127692
3.9298030043864816E-4     633.6647170750392
5.884188308682271E-4      633.6549215426551
7.835557095112735E-4      633.6554794156169
9.786925881542028E-4      633.6663906939247
0.0011741311185834375     633.6876553775786
0.0013701715601154056     633.7192734665783
0.0015671114190207022     633.7612449609242
0.0017642608961497635     633.5235900993648
0.0019605081241513326     633.282628275385
0.0021561515411346144     633.0383594889845
0.002351492352702621      632.7907837401635
0.0025468331642698894     632.5399010289219
0.0027424765812509564     632.2857113552597
0.0029387238092488436     632.0282147191768
0.0031358732863727766     631.7674111206735
0.0033326885608882563     631.4006295449196
0.0035286060983021257     631.0392677866354
0.0037239228519497995     630.6833258458207
0.003918938519653848      630.3328037224754
0.004113954187357973      629.9877014165997
0.004309270941005876      629.6480189281934
0.004505188478420127      629.3137562572568
0.004702003752936137      628.9849134037896
0.004899138702461749      628.638731793341
0.005095371599302965      628.3094421792426
0.005291000816927052      627.9970445614945
0.005486327495291825      627.7015389400965
0.005681654173656831      627.4229253150488
0.0058772833912816074     627.1612036863513
0.0060735162881239745     626.916374054004
0.006270651237651189      626.688436418007
0.006467582778148322      626.510760626944
0.006663615013526554      626.3659248761044
0.006859045413116663      626.2539291654881
0.0070541741987231454     626.174773495095
0.007249302984329781      626.1284578649253
0.007444733383920351      626.114982274979
0.007640765619299351      626.1343467252558
0.007837697159797551      626.1865512157561
0.008034634474091872      626.1838321057019
0.008230672405352359      626.2178434662035
0.008426108448549354      626.2885852972605
0.008621242851524007      626.3960575988733
0.008816377254498534      626.5402603710418
0.009011813297695145      626.7211936137659
0.009207851228955002      626.9388573270456
0.00940478854324844       627.193251510881
0.00960192671152544       627.5027321229463
0.00979816278359587       627.8276008783561
0.009993795147248338      628.1678577771103
0.010189124956984269      628.5235028192088
0.010384454766719743      628.8945360046519
0.010580087130370853      629.2809573334393
0.010776323202439026      629.6827668055711
0.01097346137071288       630.0999644210474
0.011170281912174305      630.4697773663595
0.011366204645540166      630.8497581682853
0.011561526547508357      631.239906826825
0.011756547339625332      631.6402233419783
0.011951568131742307      632.0507077137455
0.0121468900337105        632.4713599421262
0.012342812767076368      632.902180027121
0.0125396333085378        633.3431679687293
0.012736771215691979      633.6267300822244
0.012933007030171178      633.9093301551349
0.013128639138602195      634.1909681874611
0.013323968694306592      634.4716441792028
0.013519298250011432      634.7513581303601
0.013714930358443784      635.0301100409332
0.0139111661729252        635.3078999109217
0.014108304080082462      635.5847277403259
0.014305241249097643      635.5791551176392
0.014501279037039759      635.576585260515
0.014696714938233999      635.5770181689533
0.014891849199866372      635.5804538429542
0.015086983461498874      635.5868922825176
0.015282419362693495      635.5963334876435
0.01547845715063625       635.6087774583319
0.015675394319652317      635.6242241945828
0.015872325504405583      635.2569168296664
0.01606835738884011       634.8942592305144
0.016263787440706973      634.5362513971269
0.016458915880206496      634.1828933295039
0.016654044319705866      633.8341850276455
0.016849474371572262      633.4901264915516
0.017045506256006017      633.1507177212221
0.017242437440758204      632.8159587166573
0.01743957168037589       632.258309227824
0.017635803876907424      631.6915052481205
0.01783143240066149       631.1155467775462
0.018026758388388308      630.5304338161017
0.01822208437611492       629.9361663637866
0.01841771289986836       629.3327444206011
0.018613945096398854      628.7201679865451
0.018811079336015085      628.0984370616187
0.019007894687321662      627.4372784475698
0.01920381230049143       626.7787222098291
0.019399129129200405      626.1227683483962
0.01959414487161704       625.4694168632714
0.01978916061403359       624.8186677544545
0.01998447744274231       624.1705210219457
0.020180395055911654      623.5249766657448
0.020377210407217645      622.882034685852
0.020574360469106157      622.3002905086944
0.020770608273960874      621.7397537821946
0.020966252262493188      621.2004245063523
0.021161593642948652      620.6823026811678
0.021356935023404883      620.1853883066409
0.021552579011939476      619.7096813827715
0.021748826816797996      619.2551819095598
0.021945976878691802      618.8218898870058
0.022142917141692885      618.4880336897379
0.022338957981867254      618.197598235371
0.022534396907280062      617.9505835239049
0.02272953417907009       617.7469895553398
0.02292467145086023       617.5868163296757
0.02312011037627338       617.4700638469122
0.02331615121644832       617.3967321070498
0.023513091479450195      617.3668211100883
0.023710025135207962      617.3006029308101
0.02390605945730262       617.2828761999687
0.024101491924457957      617.3136409175637
0.024296622768016963      617.3928970835955
0.024491753611575823      617.5206446980638
0.02468718607873073       617.696883760969
0.024883220400824673      617.9216142723106
0.025080154056581445      618.1948362320891
0.025277299572591536      618.5738985897996
0.025473542893039384      618.974652648884
0.02566918243840792       619.3970984093423
0.025864519396400307      619.8412358711746
0.026059856354392216      620.3070650343807
0.026255495899759323      620.7945858989607
0.026451739220204794      621.3037984649147
0.026648884736211575      621.8347027322426
0.02684569473774919       622.4117921973318
0.027041607073256636      622.9947079824457
0.027236918672681274      623.5834500875837
0.027431929210095855      624.1780185127463
0.027626939747510428      624.7784132579333
0.027822251346935042      625.3846343231447
0.028018163682442445      625.9966817083805
0.028214973683980002      626.6145554136407
0.028412120943583204      627.2012065445022
0.028608365984047285      627.7772032405045
0.02880400723361381       628.3425455016477
0.02899934588786498       628.8972333279315
0.02919468454211669       629.4412667193562
0.029390325791684838      629.9746456759217
0.02958657083215161       630.497370197628
0.029783718091758563      631.0094402844752
0.029980652759780888      631.3483944630273
0.030176688080480362      631.6871448788277
0.030372121537075924      632.0256915318764
0.03056725336547531       632.3640344221735
0.030762385193874833      632.702173549719
0.030957818650470807      633.0401089145128
0.031153853971170976      633.3778405165549
0.031350788639194264      633.7153683558453
