% Model:              brazing.mph
% Version:            COMSOL 5.3.0.223
% Date:               Oct 22 2018, 15:37
% Dimension:          1
% Nodes:              225
% Expressions:        1
% Description:        Line graph
% x                       Height
0                         630.1787785513911
2.1191841480136804E-4     630.0932684589628
4.2353438892247565E-4     629.9688527285841
6.349689892252786E-4      629.8055313602546
8.463435942227858E-4      629.6033043539746
0.001057779685752053      629.3621717097444
0.001269398639759412      629.0821334275632
0.001481321517995422      628.7631895074317
0.0017252358262731596     628.3373559553908
0.0019686866163640313     627.8806348377802
0.0022118589563155885     627.3930261546001
0.002454938550168189      626.8745299058504
0.0026981113144448556     626.3251460915312
0.0029415629522145732     625.7448747116422
0.0031854785295931678     625.1337157661836
0.0034450106912723537     624.3797342321609
0.0037039863009040125     623.5942759184201
0.003962627412610827      622.7773408249609
0.0042211569424298        621.9289289517835
0.004479798094906585      621.049040298888
0.004738773785972872      620.1376748662741
0.004998306069542035      619.1948326539421
0.005274868491808245      618.0909483781278
0.005550758931995686      616.9700318675145
0.0058262454501036105     615.832083122102
0.006101597285810183      614.6771021418903
0.006377084073678616      613.5050889268796
0.006652975052596927      612.3160434770693
0.006929538280995558      611.1099657924601
0.007206101510950518      609.860175584988
0.007481992491406557      608.627920163206
0.007757479280801014      607.4131995271141
0.00803283111802884       606.2160136767124
0.008308317637660222      605.036362612001
0.008584208079380276      603.8742463329795
0.008860770503195153      602.7296648396484
0.009120302815147717      601.6551741269285
0.00937927853441616       600.6219735439072
0.009637919714987194      599.6300630905841
0.009896449272866283      598.6794427669596
0.010155090412673047      597.7701125730339
0.010414066050518256      596.9020725088064
0.01067359824059789       596.0753225742776
0.010917512776055054      595.3222606593047
0.011160965100129169      594.6203656646123
0.011404139717480647      593.9696375902004
0.01164722176512739       593.3700764360692
0.011890396591516505      592.8216822022188
0.012133849333188814      592.3244548886486
0.012377764493855997      591.8783944953591
0.01258968694000722       591.5330215047245
0.012801305803204788      591.2284282763525
0.013012742322906452      590.9646148102429
0.013224118052332232      590.7415811063958
0.01343555464954572       590.5593271648115
0.013647173667633327      590.4178529854893
0.013859096345786744      590.3171585684298
0.014071014760598048      590.2733390000096
0.014282630734729056      590.2694985782329
0.01449406533504172       590.3056373030994
0.014705439940049088      590.3817551746091
0.014916876031588231      590.4978521927626
0.015128494985605482      590.653928357559
0.015340417863851432      590.849983668999
0.01558433217214941       591.094145271387
0.015827782962260412      591.3968265483256
0.016070955302232025      591.7580274998144
0.016314034896104664      592.1777481258536
0.0165572076604014        592.6559884264435
0.01680065929819124       593.1927484015833
0.01704457487559009       593.7880280512738
0.01730410703726679       594.437683332381
0.017563082646895985      595.1276344463364
0.01782172375860034       595.8578813931399
0.018080253288416847      596.6284241727917
0.01833889444089119       597.439262785292
0.018597870131955005      598.2903972306402
0.018857402415521692      599.1818275088368
0.019133964837753384      600.1387137927753
0.019409855277906563      601.1141262401377
0.019685341795980367      602.1080648509236
0.019960693631652874      603.1205296251334
0.0202361804194872        604.1515205627674
0.020512071398371242      605.2010376638244
0.020788634626735362      606.2690809283056
0.02106519785666259       607.3129788840757
0.021341088837091095      608.3451650932107
0.021616575626458134      609.3656395557102
0.02189192746365859       610.3744022715746
0.022167413983262562      611.371453240804
0.02244330442495508       612.3567924633979
0.022719866848742224      613.3304199393567
0.022979399160698737      614.1466947048367
0.023238374879971102      614.9410493703228
0.023497016060546046      615.7134839358149
0.023755545618429033      616.4639984013131
0.02401418675823971       617.1925927668178
0.024273162396088833      617.899267032328
0.024532694586172417      618.5840211978447
0.02477660912165014       619.1510680383241
0.02502006144574469       619.6849796574369
0.025263236063116538      620.1857560551831
0.025506318110783622      620.6533972315627
0.025749492937193107      621.0879031865762
0.02599294567888585       621.4892739202227
0.026236860839573585      621.8575094325029
0.026448783285734738      622.123267029277
0.02666040214894219       622.3711296858203
0.026871838668653707      622.6010974021327
0.027083214398089334      622.8131701782142
0.027294650995312687      623.0073480140653
0.027506270013410168      623.183630909685
0.02771819269157351       623.3420188650742
0.02793011110637494       623.4102785882063
0.028141727080496122      623.4594141866008
0.028353161680798985      623.4894256602577
0.028564536285796558      623.500313009177
0.028775972377325904      623.492076233359
0.028987591331333325      623.464715332803
0.029199514209569403      623.4182303075098
0.02944342851784522       623.235980552692
0.02968687930793418       623.0116294310876
0.02993005164788383       622.7451769426966
0.030173131241734534      622.4366230875194
0.0304163040060093        622.0859678655557
0.0306597556437771        621.6932112768053
0.030903671221153783      621.2583533212686
0.031163203382828072      620.6384547497485
0.03142217899245488       619.9739571204842
0.03168082010415685       619.2648604334759
0.03193934963397098       618.5111646887234
0.032197990786442934      617.712869886227
0.03245696647750436       616.8699760259864
0.032716498761068635      615.9824831080017
0.03299306118333142       614.865377988919
0.03326895162351545       613.7275009677703
0.03354443814161999       612.5688520445557
0.03381978997732317       611.3894312192748
0.034095276765188226      610.1892384919282
0.03437116774410313       608.9682738625153
0.03464773097249833       607.7265373310364
0.034924294202460265      606.4157879127229
0.03520018518292322       605.1251594634142
0.03547567197232456       603.8546519831102
0.035751023809559274      602.604265471811
0.036026510329197556      601.3739999295169
0.036302400770924524      600.1638553562271
0.03657896319474637       598.9738317519425
0.036838495506703706      597.8556237038399
0.03709747122597688       596.7898315051783
0.037356112406552636      595.7764551559579
0.03761464196443644       594.8154946561783
0.03787328310424792       593.9069500058403
0.03813225874209787       593.0508212049428
0.03839179093218227       592.2471082534867
0.03863570546763781       591.5195939814939
0.038879157791710306      590.8557813528628
0.03912233240906017       590.255670367593
0.03936541445670531       589.7192610256848
0.039608589283092806      589.2465533271383
0.039852042024763494      588.8375472719529
0.04009595718542905       588.4922428601292
0.040307879631580334      588.2272113159997
0.04051949849477797       588.0129852269868
0.0407309350144797        587.8495645930899
0.040942310743905544      587.7369494143096
0.04115374734111909       587.6751396906459
0.04136536635920676       587.6641354220982
0.04157728903736024       587.7039366086672
0.04178920745215007       587.8006914950403
0.042000823426259694      587.9467468659172
0.042212258026551035      588.1421027212976
0.04242363263153709       588.3867590611818
0.0426350687230549        588.68071588557
0.042846687677050764      589.0239731944614
0.04305861055527523       589.4165309878567
0.04330252486354604       589.8950165735689
0.043545975653630026      590.4405492103139
0.04378914799357473       591.0531288980916
0.044032227587420474      591.7327556369022
0.04427540035169028       592.4794294267459
0.04451885198945311       593.2931502676222
0.044762767566824783      594.1739181595315
0.045022299728516735      595.1405995864368
0.04528127533816108       596.1534477636885
0.045539916449880535      597.2124626912864
0.045798445979712124      598.3176443692304
0.046057087132201545      599.4689927975211
0.04631606282328052       600.6665079761575
0.046575595106862454      601.9101899051403
0.04685215752913061       603.2361364960941
0.04712804796931999       604.5850491326863
0.04740353448742985       605.9569278149166
0.04767888632313835       607.3517725427852
0.04795437311100872       608.7695833162923
0.048230264089928976      610.2103601354372
0.048506827318329566      611.6741030002207
0.04878339054829114       613.0661328603115
0.049059281528753745      614.4379669407458
0.04933476831815475       615.7896052415234
0.0496101201553891        617.1210477626447
0.04988560667502701       618.4322945041097
0.05016149711675364       619.7233454659179
0.050438059540575134      620.9942006480698
0.05069759185254397       622.0186340927839
0.05095656757182859       622.9972075529233
0.05121520875241573       623.9299210284881
0.05147373831031092       624.8167745194785
0.051732379450133786      625.6577680258945
0.05199135508799517       626.4529015477355
0.05225088727809108       627.2021750850022
0.0524948018135407        627.7879079247224
0.052738254137607306      628.315429092733
0.05298142875495131       628.7847385890341
0.05322451080259058       629.1958364136258
0.0534676856289722        629.5487225665083
0.05371113837063701       629.843397047681
0.05395505353129665       630.0798598571445
0.05416697597743634       630.217979120222
0.054378594840622414      630.3147690429522
0.05459003136031263       630.3702296253349
0.05480140708972696       630.38436086737
0.05501284368692898       630.3571627690579
0.0552244627050051        630.2886353303982
0.05543638538314697       630.1787785513911
