% Model:              brazing.mph
% Version:            COMSOL 5.3.0.223
% Date:               Oct 22 2018, 15:00
% Dimension:          1
% Nodes:              225
% Expressions:        1
% Description:        Line graph
% x                       Height
0                         648.6319076218396
2.02242572596226E-4       648.6218655963181
4.040113375593453E-4      648.5507804822457
6.054635867748898E-4      648.4186522796226
8.067573541103817E-4      648.2254809884487
0.0010080510467017985     647.971266608724
0.001209503071861434      647.6560091404485
0.0014112714639836859     647.2797085836221
0.001613513515825394      646.8423649382449
0.001815803045808458      646.4485552928552
0.0020176184164428694     646.0097941649507
0.0022191170764546647     645.5260815545313
0.0024204572175778446     644.9974174615973
0.00262179740518867       644.4238018861485
0.002823296204553664      643.8052348281848
0.0030251118070788686     643.1417162877066
0.003227401660948015      642.4332462647135
0.0034297372965816655     641.7445698402379
0.003631598594156443      641.0203860317356
0.0038331430353414214     640.2606948392067
0.004034528845142556      639.4654962626513
0.004235914622467191      638.6347903020693
0.004437458966299354      637.7685769574607
0.004639320101874085      636.8668562288253
0.004841655511239337      635.9296281161635
0.005043918276497792      635.0702167468359
0.005245706959792293      634.1994009430555
0.0054471789681153834     633.3171807048225
0.00564849245128538       632.4235560321368
0.005849805932728159      631.5185269249986
0.006051277935873691      630.6020933834076
0.00625306661055245       629.6742554073641
0.006455329363777148      628.7350129968679
0.0066576887471433525     627.8246393653352
0.0068595736811967985     626.9322546231855
0.007061141707903535      626.0578587704186
0.007262551112883539      625.2014518070347
0.007463960555734714      624.3630337330336
0.007665528695965537      623.5426045484155
0.00786741381892875       622.7401642531802
0.0080697734661485        621.955712847328
0.008272395437950266      621.2484556464962
0.008474540847339949      620.563952527939
0.008676367906616744      619.9022034916567
0.008878035577337231      619.263208537649
0.009079703197965442      618.646967665916
0.009281530107084053      618.0534808764578
0.00948367526660416       617.4827481692743
0.009686296889411194      616.9347695443654
0.009888748367913874      616.5813642113707
0.010090724718905934      616.2654261661544
0.010292383720552634      615.9869554087165
0.010493883896490891      615.745951939057
0.010695384145210549      615.542415757176
0.010897043365029401      615.3763468630732
0.011099020079070253      615.2477452567489
0.011301472064648224      615.1566109382028
0.011503924099142101      615.1641631887259
0.011705900863193036      615.210261325784
0.011907560133099505      615.2949053493772
0.012109060430962503      615.4180952595054
0.012310560654077738      615.5798310561687
0.012512219699917606      615.780112739367
0.012714196091111104      616.0189403091002
0.012916647604829811      616.2963137653686
0.013119269382981878      616.716714864016
0.013321414683399362      617.1677692868556
0.013523241722808088      617.6494770338873
0.013724909467002238      618.1618381051111
0.013926577258472442      618.7048525005271
0.014128404439597363      619.2785202201351
0.014330549975836581      619.8828412639353
0.01453317208336263       620.5178156319276
0.014735531766219815      621.2190458450776
0.014937416940401616      621.9327546689642
0.015138985143475461      622.6589421035872
0.015340394656791169      623.3976081489466
0.015541804135826716      624.1487528050425
0.015743372236141022      624.9123760718749
0.015945257239325793      625.6884779494438
0.01614761668334845       626.4770584377491
0.01634987940592303       627.373912412441
0.016551668047823844      628.2585025104086
0.016753140015983766      629.1308287316521
0.0169544534601584        629.9908910761714
0.017155766903708087      630.8386895439664
0.017357238869994664      631.6742241350374
0.017559027508778132      632.4974948493841
0.01776129022699866       633.3085016870067
0.017963625484858744      634.1459975404979
0.018165486461237414      634.9594059606736
0.018367030641941378      635.7487269475338
0.018568416255992027      636.5139605010786
0.018769801906169285      637.2551066213078
0.018971346195167795      637.9721653082215
0.019173207351754082      638.6651365618197
0.019375542861313405      639.3340203821024
0.019577832661189145      640.0215922607796
0.019779648217873542      640.6589045268115
0.019981146975907166      641.2459571801983
0.020182487123025287      641.7827502209396
0.020383827220813066      642.2692836490357
0.020585325830972126      642.7055574644868
0.020787141141585735      643.0915716672924
0.020989430597769934      643.4273262574529
0.021191672662378012      643.8599868941016
0.021393441061935803      644.231284911507
0.02159489309031221       644.541220309669
0.021796186783028852      644.789793088588
0.021997480548535182      644.9770032482637
0.022198932795108938      645.1028507886962
0.022400701557758636      645.1673357098853
0.02260294412950465       645.1704580118311
0.02280539620920995       645.2176720653405
0.023007373018156245      645.201259918118
0.02320903233274668       645.1212215701638
0.023410532675187733      644.9775570214778
0.023612032942881025      644.7702662720599
0.023813692033404853      644.4993493219102
0.024015668469493705      644.1648061710288
0.024218120028423832      643.7666368194156
0.024420742013481003      643.3866539871748
0.02462288751935683       642.9546175671619
0.02482471476325633       642.4705275593768
0.02502638271145666       641.9343839638195
0.025228050706933344      641.3461867804901
0.025429878092549915      640.7059360093886
0.025632023834248962      640.013631650515
0.025834646148682177      639.2692737038691
0.026037006051731277      638.5207612069845
0.026238891444565628      637.7332340508784
0.02644045986526205       636.9066922355507
0.026641869595683754      636.0411357610013
0.02684327929182417       635.1365646272303
0.027044847609757647      634.1929788342378
0.02724673283158932       633.2103783820237
0.027449092495796006      632.188763270588
0.02765135518998453       631.1921544910639
0.027853143803698084      630.187229206628
0.028054615743803996      629.1739874172804
0.028255929159991804      628.1524291230209
0.028457242575555555      627.1225543238496
0.028658714513790734      626.0843630197664
0.028860503124391312      625.0378552107717
0.029062765814231884      623.983030896865
0.029265100752448706      622.9339577274807
0.02946696141141544       621.9096229164926
0.029668505276199596      620.9100264639005
0.029869890575077548      619.9351683697046
0.03007127591008127       618.9850486339049
0.030272819883157453      618.059667256501
0.03047468072232762       617.1590242374936
0.030677015912237836      616.2831195768821
0.030879305594778746      615.480286449582
0.03108112103494649       614.7138682781101
0.031282619677010744      613.9838650624666
0.03148395970843373       613.2902768026515
0.0316852996905265        612.6331034986649
0.031886798184716555      612.0123451505065
0.032088613378814135      611.4280017581766
0.03229090271766436       610.8800733216749
0.03249314477533616       610.509203818435
0.03269491316800606       610.1913514631743
0.03289636518952694       609.9265162558928
0.03309765887540427       609.7146981965906
0.033298952634071295      609.5558972852675
0.033500404873789524      609.4501135219236
0.03370217362955133       609.397346906559
0.03390441619436107       609.3975974391736
0.03410686840969767       609.4985789517161
0.03430884535332711       609.6528963676703
0.0345105048019665        609.8605496870364
0.034712005278138794      610.121538909814
0.03491350567956333       610.4358640360034
0.03511516490413611       610.8035250656045
0.035317141474908095      611.2245219986172
0.03551959316946952       611.6988548350417
0.035722216260139425      612.3107395539348
0.03592436286389621       612.9634248832986
0.036126191200505704      613.6569108231328
0.03632786023882611       614.3911973734375
0.03652952932442421       615.1662845342129
0.036731357802754806      615.9821723054589
0.03693350464234149       616.8388606871754
0.03713612806239678       617.7363496793627
0.03733848789969145       618.6934166099849
0.037540373227224554      619.670401095178
0.03774194158292153       620.6673031349422
0.03794335124849304       621.6841227292774
0.03814476087977932       622.7208598781837
0.03834632913270157       623.7775145816607
0.03854821428921239       624.854086839709
0.038750573887637245      625.9505766523281
0.03895283596123875       627.1103349462297
0.039154623958694366      628.257203956823
0.039356095285438375      629.3911836841078
0.03955740808971597       630.5122741280842
0.03975872089337115       631.6204752887522
0.03996019221824938       632.7157871661119
0.04016198021260023       633.7982097601631
0.04036424228186526       634.8677430709059
0.040566577948397485      635.9242193908478
0.040768439330593605      636.94672472527
0.04096998391520435       637.9352590741722
0.04117136993220262       638.8898224375548
0.04137275598532357       639.8104148154176
0.04157430067821714       640.6970362077606
0.04177616224060133       641.549686614584
0.0419784981588055        642.3683660358873
0.04218078754816035       643.1706310204108
0.04238260269718259       643.9121615090645
0.04258410104946696       644.5929575018483
0.04278544079179545       645.2130189987622
0.04298678048479618       645.7723459998062
0.043188278689213704      646.2709385049806
0.043390093592177985      646.7087965142847
0.04359238263785921       647.0859200277192
0.043794623705544454      647.512089435235
0.04399639111513442       647.8717099975364
0.04419784215819482       648.164781714623
0.04439913486792596       648.3913045864954
0.044600427650446826      648.5512786131532
0.04480187891170468       648.6447037945965
0.045003646684386715      648.6715801308252
0.04520588825921017       648.6319076218396
