% Model:              brazing.mph
% Version:            COMSOL 5.3.0.223
% Date:               Oct 22 2018, 15:14
% Dimension:          1
% Nodes:              225
% Expressions:        1
% Description:        Line graph
% x                       Height
0                         557.3987629863564
2.02242572596226E-4       557.3951538735023
4.040113375593453E-4      557.3345900180288
6.054635867748898E-4      557.2170714199357
8.067573541103817E-4      557.042598079223
0.0010080510467017985     556.8111699958907
0.001209503071861434      556.522787169939
0.0014112714639836859     556.1774496013676
0.001613513515825394      555.7751572901767
0.001815803045808458      555.4402567731474
0.0020176184164428694     555.0635985291982
0.0022191170764546647     554.6451825583288
0.0024204572175778446     554.1850088605394
0.00262179740518867       553.6830774358299
0.002823296204553664      553.1393882842003
0.0030251118070788686     552.5539414056507
0.003227401660948015      551.9267368001811
0.0034297372965816655     551.3284238134621
0.003631598594156443      550.6959644130326
0.0038331430353414214     550.0293585988928
0.004034528845142556      549.3286063710424
0.004235914622467191      548.5937077294816
0.004437458966299354      547.8246626742102
0.004639320101874085      547.0214712052285
0.004841655511239337      546.1841333225362
0.005043918276497792      545.4414925701253
0.005245706959792293      544.6861048520678
0.0054471789681153834     543.9179701683639
0.00564849245128538       543.1370885190134
0.005849805932728159      542.3434599040164
0.006051277935873691      541.5370843233728
0.00625306661055245       540.7179617770828
0.006455329363777148      539.8860922651461
0.0066576887471433525     539.0813142434447
0.0068595736811967985     538.2912296923421
0.007061141707903535      537.5158386118383
0.007262551112883539      536.7551410019332
0.007463960555734714      536.009136862627
0.007665528695965537      535.2778261939196
0.00786741381892875       534.561208995811
0.0080697734661485        533.8592852683013
0.008272395437950266      533.2376363983033
0.008474540847339949      532.6316478917602
0.008676367906616744      532.041319748672
0.008878035577337231      531.4666519690388
0.009079703197965442      530.9076445528606
0.009281530107084053      530.3642975001374
0.00948367526660416       529.8366108108689
0.009686296889411194      529.3245844850555
0.009888748367913874      529.0154986123079
0.010090724718905934      528.7361616531575
0.010292383720552634      528.4865736076046
0.010493883896490891      528.2667344756488
0.010695384145210549      528.0766442572906
0.010897043365029401      527.9163029525296
0.011099020079070253      527.785710561366
0.011301472064648224      527.6848670837996
0.011503924099142101      527.6805293220897
0.011705900863193036      527.7072930864485
0.011907560133099505      527.7651583768762
0.012109060430962503      527.8541251933729
0.012310560654077738      527.9741935359382
0.012512219699917606      528.1253634045725
0.012714196091111104      528.3076347992754
0.012916647604829811      528.5210077200474
0.013119269382981878      528.8800375963143
0.013321414683399362      529.2637504040213
0.013523241722808088      529.6721461431681
0.013724909467002238      530.105224813755
0.013926577258472442      530.5629864157817
0.014128404439597363      531.0454309492483
0.014330549975836581      531.5525584141549
0.01453317208336263       532.0843688105015
0.014735531766219815      532.6823099257203
0.014937416940401616      533.2888373481188
0.015138985143475461      533.903951077697
0.015340394656791169      534.5276511144548
0.015541804135826716      535.1599374583922
0.015743372236141022      535.8008101095093
0.015945257239325793      536.4502690678058
0.01614761668334845       537.1083143332822
0.01634987940592303       537.8860097618759
0.016551668047823844      538.6507918683006
0.016753140015983766      539.402660652556
0.0169544534601584        540.1416161146425
0.017155766903708087      540.8676582545597
0.017357238869994664      541.5807870723079
0.017559027508778132      542.281002567887
0.01776129022699866       542.968304741297
0.017963625484858744      543.6840761647137
0.018165486461237414      544.3784425354071
0.018367030641941378      545.0514038533772
0.018568416255992027      545.7029601186242
0.018769801906169285      546.3331113311478
0.018971346195167795      546.9418574909482
0.019173207351754082      547.5291985980255
0.019375542861313405      548.0951346523793
0.019577832661189145      548.6954925890984
0.019779648217873542      549.2477717367344
0.019981146975907166      549.7519720952873
0.020182487123025287      550.2080936647573
0.020383827220813066      550.6161364451442
0.020585325830972126      550.9761004364478
0.020787141141585735      551.2879856386686
0.020989430597769934      551.5517920518063
0.021191672662378012      551.9489309311921
0.021393441061935803      552.2890842547032
0.02159489309031221       552.5722520223397
0.021796186783028852      552.7984342341016
0.021997480548535182      552.9676308899889
0.022198932795108938      553.0798419900012
0.022400701557758636      553.1350675341392
0.02260294412950465       553.1333075224024
0.02280539620920995       553.1912938655145
0.023007373018156245      553.1905978467636
0.02320903233274668       553.1312194661497
0.023410532675187733      553.0131587236729
0.023612032942881025      552.8364156193331
0.023813692033404853      552.6009901531304
0.024015668469493705      552.3068823250647
0.024218120028423832      551.9540921351361
0.024420742013481003      551.6458676950418
0.02462288751935683       551.2902010844603
0.02482471476325633       550.8870923033913
0.02502638271145666       550.436541351835
0.025228050706933344      549.9385482297912
0.025429878092549915      549.3931129372602
0.025632023834248962      548.8002354742416
0.025834646148682177      548.1599158407358
0.026037006051731277      547.527181619359
0.026238891444565628      546.8581814312563
0.02644045986526205       546.1529152764276
0.026641869595683754      545.4113831548731
0.02684327929182417       544.6335850665926
0.027044847609757647      543.8195210115863
0.02724673283158932       542.969190989854
0.027449092495796006      542.0825950013958
0.02765135518998453       541.2392117259924
0.027853143803698084      540.3869233865412
0.028054615743803996      539.5257299830424
0.028255929159991804      538.6556315154958
0.028457242575555555      537.7766279839016
0.028658714513790734      536.8887193882596
0.028860503124391312      535.9919057285699
0.029062765814231884      535.0861870048326
0.029265100752448706      534.184208428615
0.02946696141141544       533.3035679320282
0.029668505276199596      532.4442655150724
0.029869890575077548      531.6063011777474
0.03007127591008127       530.7896749200534
0.030272819883157453      529.9943867419901
0.03047468072232762       529.220436643558
0.030677015912237836      528.4678246247564
0.030879305594778746      527.7907114540351
0.03108112103494649       527.1421988434105
0.031282619677010744      526.5222867928827
0.03148395970843373       525.9309753024517
0.0316852996905265        525.3682643721173
0.031886798184716555      524.8341540018797
0.032088613378814135      524.328644191739
0.03229090271766436       523.8517349416949
0.03249314477533616       523.55832259967
0.03269491316800606       523.3089639820157
0.03289636518952694       523.103659088732
0.03309765887540427       522.942407919819
0.033298952634071295      522.8252104752764
0.033500404873789524      522.7520667551046
0.03370217362955133       522.7229767593033
0.03390441619436107       522.7379404878726
0.03410686840969767       522.8494911434517
0.03430884535332711       523.0054954595747
0.0345105048019665        523.2059534362419
0.034712005278138794      523.450865073453
0.03491350567956333       523.7402303712081
0.03511516490413611       524.0740493295073
0.035317141474908095      524.4523219483503
0.03551959316946952       524.8750482277376
0.035722216260139425      525.4358141622322
0.03592436286389621       526.0301198824388
0.036126191200505704      526.6579653883576
0.03632786023882611       527.3193506799886
0.03652952932442421       528.0142757573317
0.036731357802754806      528.7427406203867
0.03693350464234149       529.5047452691542
0.03713612806239678       530.3002897036336
0.03733848789969145       531.1543652493665
0.037540373227224554      532.0238073375846
0.03774194158292153       532.9086159682877
0.03794335124849304       533.8087911414759
0.03814476087977932       534.7243328571493
0.03834632913270157       535.6552411153078
0.03854821428921239       536.6015159159514
0.038750573887637245      537.5631572590802
0.03895283596123875       538.5972299486551
0.039154623958694366      539.6175326869812
0.039356095285438375      540.6240654740585
0.03955740808971597       541.616828309887
0.03975872089337115       542.5958211944666
0.03996019221824938       543.5610441277973
0.04016198021260023       544.5124971098793
0.04036424228186526       545.4501801407124
0.040566577948397485      546.3765653809163
0.040768439330593605      547.2720473271091
0.04096998391520435       548.1366259792909
0.04117136993220262       548.9703013374616
0.04137275598532357       549.7730734016212
0.04157430067821714       550.5449421717698
0.04177616224060133       551.2859076479072
0.0419784981588055        551.9959698300335
0.04218078754816035       552.7053911057521
0.04238260269718259       553.3567532576456
0.04258410104946696       553.9500562857137
0.04278544079179545       554.4853001899564
0.04298678048479618       554.9624849703739
0.043188278689213704      555.3816106269662
0.043390093592177985      555.7426771597331
0.04359238263785921       556.0456845686748
0.043794623705544454      556.4323578483904
0.04399639111513442       556.7568772773903
0.04419784215819482       557.0192428556743
0.04439913486792596       557.2194545832424
0.044600427650446826      557.3575124600947
0.04480187891170468       557.4334164862311
0.045003646684386715      557.4471666616515
0.04520588825921017       557.3987629863564
